 Output coordinates in angstroms (scale by  1.889725989 to convert to a.u.)

  No.       Tag          Charge          X              Y              Z
 ---- ---------------- ---------- -------------- -------------- --------------
    1 H                    1.0000    -0.41250384     1.41385532     3.54254124
    2 C                    6.0000    -0.84831467     1.79916493     2.62171909
    3 H                    1.0000    -0.06469667     2.22712430     2.00016329
    4 H                    1.0000    -1.58860332     2.56064877     2.85857575
    5 C                    6.0000    -1.51376760     0.66785932     1.87718300
    6 O                    8.0000    -1.48401791    -0.46949112     2.33404723
    7 N                    7.0000    -2.08341635     0.97105891     0.71229660
    8 H                    1.0000    -1.98381700     1.91926739     0.38535981
    9 C                    6.0000    -2.83061143     0.04346893    -0.15460439
   10 H                    1.0000    -3.52375617    -0.50990270     0.47945571
   11 C                    6.0000    -3.66524981     0.88495068    -1.13270266
   12 H                    1.0000    -4.29257811     1.58638124    -0.58093878
   13 H                    1.0000    -3.00850053     1.43502935    -1.80740173
   14 H                    1.0000    -4.30854687     0.23134041    -1.72286493
   15 C                    6.0000    -1.95840594    -1.02430930    -0.87017776
   16 O                    8.0000    -2.25782140    -1.44793048    -1.98277134
   17 N                    7.0000    -0.85689909    -1.42937294    -0.23918243
   18 H                    1.0000    -0.70296649    -1.02794380     0.67525150
   19 C                    6.0000     0.16827229    -2.35161386    -0.74044217
   20 H                    1.0000    -0.30445519    -3.10305010    -1.37511398
   21 C                    6.0000     1.17431396    -1.55707411    -1.59013726
   22 H                    1.0000     1.96217235    -2.22773157    -1.93520062
   23 H                    1.0000     0.65839848    -1.18965189    -2.47760846
   24 C                    6.0000     1.79999129    -0.38284966    -0.89556990
   25 C                    6.0000     2.90451526    -0.43217052    -0.11834197
   26 H                    1.0000     3.48312483    -1.33156578     0.06832388
   27 N                    7.0000     3.15611542     0.81965766     0.40983750
   28 H                    1.0000     3.94168906     1.01763497     1.01334065
   29 C                    6.0000     2.21348578     1.74095741     0.00534012
   30 C                    6.0000     2.02860199     3.10544947     0.27325316
   31 H                    1.0000     2.71791072     3.63370846     0.91344525
   32 C                    6.0000     0.94066687     3.77615250    -0.31403264
   33 H                    1.0000     0.79136233     4.83218368    -0.12895076
   34 C                    6.0000     0.05949466     3.07845723    -1.16006388
   35 H                    1.0000    -0.76109030     3.60334870    -1.62975769
   36 C                    6.0000     0.25768209     1.70802391    -1.42331706
   37 H                    1.0000    -0.40872889     1.18363508    -2.09240059
   38 C                    6.0000     1.33352751     1.00122220    -0.84110319
   39 C                    6.0000     0.88132188    -3.10734356     0.40119126
   40 O                    8.0000     1.84260784    -3.83145586     0.17205227
   41 N                    7.0000     0.45771577    -2.95456582     1.65341881
   42 H                    1.0000     0.93935447    -3.45620187     2.38007102
   43 H                    1.0000    -0.32767206    -2.35660847     1.86332822

         Total SCF energy =  -1060.124191210107

 Vector  148  Occ=0.000000D+00  E= 2.358693D-01

 Vector  149  Occ=0.000000D+00  E= 2.367007D-01

 Vector  150  Occ=0.000000D+00  E= 2.390199D-01

 Vector  151  Occ=0.000000D+00  E= 2.420411D-01

 Vector  152  Occ=0.000000D+00  E= 2.457883D-01

 Vector  153  Occ=0.000000D+00  E= 2.479837D-01

 Vector  154  Occ=0.000000D+00  E= 2.494098D-01

 Vector  155  Occ=0.000000D+00  E= 2.537696D-01

 Vector  156  Occ=0.000000D+00  E= 2.575551D-01

 Vector  157  Occ=0.000000D+00  E= 2.643557D-01

 Vector  158  Occ=0.000000D+00  E= 2.699036D-01

 Vector  159  Occ=0.000000D+00  E= 2.734492D-01

 Vector  160  Occ=0.000000D+00  E= 2.768291D-01

 Vector  161  Occ=0.000000D+00  E= 2.841870D-01

 Vector  162  Occ=0.000000D+00  E= 2.868301D-01

 Vector  163  Occ=0.000000D+00  E= 2.923617D-01

 Vector  164  Occ=0.000000D+00  E= 2.981539D-01

 Vector  165  Occ=0.000000D+00  E= 2.996579D-01

 Vector  166  Occ=0.000000D+00  E= 3.029724D-01

 Vector  167  Occ=0.000000D+00  E= 3.062189D-01

 Vector  168  Occ=0.000000D+00  E= 3.099778D-01

 Vector  169  Occ=0.000000D+00  E= 3.126524D-01

 Vector  170  Occ=0.000000D+00  E= 3.191152D-01

 Vector  171  Occ=0.000000D+00  E= 3.229295D-01

 Vector  172  Occ=0.000000D+00  E= 3.241792D-01

 Vector  173  Occ=0.000000D+00  E= 3.266751D-01

 Vector  174  Occ=0.000000D+00  E= 3.296682D-01

 Vector  175  Occ=0.000000D+00  E= 3.336181D-01

 Vector  176  Occ=0.000000D+00  E= 3.347015D-01

 Vector  177  Occ=0.000000D+00  E= 3.396671D-01

 Vector  178  Occ=0.000000D+00  E= 3.412587D-01

 Vector  179  Occ=0.000000D+00  E= 3.447845D-01

 Vector  180  Occ=0.000000D+00  E= 3.542305D-01

 Vector  181  Occ=0.000000D+00  E= 3.577357D-01

 Vector  182  Occ=0.000000D+00  E= 3.602107D-01

 Vector  183  Occ=0.000000D+00  E= 3.619620D-01

 Vector  184  Occ=0.000000D+00  E= 3.656713D-01

 Vector  185  Occ=0.000000D+00  E= 3.670376D-01

 Vector  186  Occ=0.000000D+00  E= 3.707414D-01

 Vector  187  Occ=0.000000D+00  E= 3.717524D-01

 Vector  188  Occ=0.000000D+00  E= 3.781103D-01

 Vector  189  Occ=0.000000D+00  E= 3.799316D-01

 Vector  190  Occ=0.000000D+00  E= 3.814214D-01

 Vector  191  Occ=0.000000D+00  E= 3.845496D-01

 Vector  192  Occ=0.000000D+00  E= 3.858417D-01

 Vector  193  Occ=0.000000D+00  E= 3.928253D-01

 Vector  194  Occ=0.000000D+00  E= 3.931672D-01

 Vector  195  Occ=0.000000D+00  E= 3.959770D-01

 Vector  196  Occ=0.000000D+00  E= 4.000595D-01

 Vector  197  Occ=0.000000D+00  E= 4.009025D-01

 Vector  198  Occ=0.000000D+00  E= 4.034446D-01

 Vector  199  Occ=0.000000D+00  E= 4.094022D-01

 Vector  200  Occ=0.000000D+00  E= 4.121377D-01

 Vector  201  Occ=0.000000D+00  E= 4.172492D-01

 Vector  202  Occ=0.000000D+00  E= 4.226934D-01

 Vector  203  Occ=0.000000D+00  E= 4.233273D-01

 Vector  204  Occ=0.000000D+00  E= 4.273496D-01

 Vector  205  Occ=0.000000D+00  E= 4.294703D-01

 Vector  206  Occ=0.000000D+00  E= 4.340592D-01

 Vector  207  Occ=0.000000D+00  E= 4.346912D-01

 Vector  208  Occ=0.000000D+00  E= 4.385012D-01

 Vector  209  Occ=0.000000D+00  E= 4.415758D-01

 Vector  210  Occ=0.000000D+00  E= 4.443963D-01

 Vector  211  Occ=0.000000D+00  E= 4.458044D-01

 Vector  212  Occ=0.000000D+00  E= 4.489647D-01

 Vector  213  Occ=0.000000D+00  E= 4.523619D-01

 Vector  214  Occ=0.000000D+00  E= 4.549211D-01

 Vector  215  Occ=0.000000D+00  E= 4.588087D-01

 Vector  216  Occ=0.000000D+00  E= 4.646010D-01

 Vector  217  Occ=0.000000D+00  E= 4.689192D-01

 Vector  218  Occ=0.000000D+00  E= 4.742839D-01

 Vector  219  Occ=0.000000D+00  E= 4.768814D-01

 Vector  220  Occ=0.000000D+00  E= 4.793988D-01

 Vector  221  Occ=0.000000D+00  E= 4.827291D-01

 Vector  222  Occ=0.000000D+00  E= 4.839975D-01

 Vector  223  Occ=0.000000D+00  E= 4.899055D-01

 Vector  224  Occ=0.000000D+00  E= 4.925437D-01

 Vector  225  Occ=0.000000D+00  E= 4.971611D-01

 Vector  226  Occ=0.000000D+00  E= 4.986764D-01

 Vector  227  Occ=0.000000D+00  E= 5.009688D-01

       Multipole analysis of the density wrt the origin
       ------------------------------------------------

     L   x y z        total         open         nuclear
     -   - - -        -----         ----         -------
     0   0 0 0      0.000000      0.000000    168.000000

     1   1 0 0      0.013332      0.000000     -0.000000
     1   0 1 0      2.547269      0.000000      0.000000
     1   0 0 1      1.481196      0.000000      0.000000

     2   2 0 0    -95.651595      0.000000   2225.010311
     2   1 1 0      0.083212      0.000000    -27.099369
     2   1 0 1      3.094783      0.000000     20.492189
     2   0 2 0   -107.663050      0.000000   2556.295438
     2   0 1 1     -0.226116      0.000000     12.333107

 Total times  cpu:    11155.3s     wall:    11296.6s
