 Output coordinates in angstroms (scale by  1.889725989 to convert to a.u.)

  No.       Tag          Charge          X              Y              Z
 ---- ---------------- ---------- -------------- -------------- --------------
    1 H                    1.0000    -0.92611621    -5.44896682    -1.15895617
    2 C                    6.0000    -1.18586804    -5.15728044    -0.14352077
    3 H                    1.0000    -1.10989637    -6.02205281     0.51520760
    4 H                    1.0000    -2.20094662    -4.76506275    -0.11568648
    5 C                    6.0000    -0.22415885    -4.09483602     0.33390808
    6 O                    8.0000     0.47458849    -4.29551624     1.31704062
    7 N                    7.0000    -0.19677076    -2.96171650    -0.36391714
    8 H                    1.0000    -0.83050009    -2.85701810    -1.14233245
    9 C                    6.0000     0.65053437    -1.81041630    -0.05027585
   10 H                    1.0000     0.78564718    -1.75420224     1.03119514
   11 C                    6.0000     2.02714439    -2.01396931    -0.70086021
   12 H                    1.0000     2.47660579    -2.93775201    -0.33014608
   13 H                    1.0000     1.92162271    -2.07530782    -1.78480198
   14 H                    1.0000     2.68455341    -1.18153478    -0.45004526
   15 C                    6.0000    -0.00524530    -0.49728272    -0.51424053
   16 O                    8.0000    -0.90672247    -0.50216896    -1.35312314
   17 N                    7.0000     0.45088297     0.63753702     0.02163274
   18 H                    1.0000     1.22204308     0.59636108     0.67507334
   19 C                    6.0000    -0.00839529     1.98266117    -0.36350427
   20 H                    1.0000    -0.14059163     2.00044282    -1.44533372
   21 C                    6.0000    -1.37467351     2.29146943     0.27750999
   22 H                    1.0000    -2.03866990     1.43935095     0.12785406
   23 C                    6.0000    -1.31340158     2.59448866     1.77513447
   24 H                    1.0000    -2.32631539     2.72226741     2.15717400
   25 H                    1.0000    -0.84104511     1.76705587     2.30278334
   26 H                    1.0000    -0.75150299     3.50993894     1.95970634
   27 O                    8.0000    -1.95265661     3.40521086    -0.36297229
   28 H                    1.0000    -2.49106408     3.07295707    -1.08722558
   29 C                    6.0000     1.05187945     3.03858164    -0.01797793
   30 O                    8.0000     2.04134100     2.73895786     0.64282494
   31 N                    7.0000     0.88766201     4.27714224    -0.46088453
   32 H                    1.0000     0.02994412     4.52466110    -0.93006620
   33 H                    1.0000     1.58451549     4.96575799    -0.22941621

         Total SCF energy =   -813.696834952865

 Vector   95  Occ=0.000000D+00  E= 1.718208D-01

 Vector   96  Occ=0.000000D+00  E= 1.760356D-01

 Vector   97  Occ=0.000000D+00  E= 1.797836D-01

 Vector   98  Occ=0.000000D+00  E= 1.802858D-01

 Vector   99  Occ=0.000000D+00  E= 1.830467D-01

 Vector  100  Occ=0.000000D+00  E= 1.868790D-01

 Vector  101  Occ=0.000000D+00  E= 1.910888D-01

 Vector  102  Occ=0.000000D+00  E= 1.950123D-01

 Vector  103  Occ=0.000000D+00  E= 1.986569D-01

 Vector  104  Occ=0.000000D+00  E= 2.011989D-01

 Vector  105  Occ=0.000000D+00  E= 2.042515D-01

 Vector  106  Occ=0.000000D+00  E= 2.094716D-01

 Vector  107  Occ=0.000000D+00  E= 2.109913D-01

 Vector  108  Occ=0.000000D+00  E= 2.131040D-01

 Vector  109  Occ=0.000000D+00  E= 2.141801D-01

 Vector  110  Occ=0.000000D+00  E= 2.212886D-01

 Vector  111  Occ=0.000000D+00  E= 2.248746D-01

 Vector  112  Occ=0.000000D+00  E= 2.292297D-01

 Vector  113  Occ=0.000000D+00  E= 2.331698D-01

 Vector  114  Occ=0.000000D+00  E= 2.384658D-01

 Vector  115  Occ=0.000000D+00  E= 2.411668D-01

 Vector  116  Occ=0.000000D+00  E= 2.514482D-01

 Vector  117  Occ=0.000000D+00  E= 2.550562D-01

 Vector  118  Occ=0.000000D+00  E= 2.603295D-01

 Vector  119  Occ=0.000000D+00  E= 2.702546D-01

 Vector  120  Occ=0.000000D+00  E= 2.729391D-01

 Vector  121  Occ=0.000000D+00  E= 2.771665D-01

 Vector  122  Occ=0.000000D+00  E= 2.839048D-01

 Vector  123  Occ=0.000000D+00  E= 2.927982D-01

 Vector  124  Occ=0.000000D+00  E= 2.982599D-01

 Vector  125  Occ=0.000000D+00  E= 3.015957D-01

 Vector  126  Occ=0.000000D+00  E= 3.064058D-01

 Vector  127  Occ=0.000000D+00  E= 3.136939D-01

 Vector  128  Occ=0.000000D+00  E= 3.181294D-01

 Vector  129  Occ=0.000000D+00  E= 3.253518D-01

 Vector  130  Occ=0.000000D+00  E= 3.289157D-01

 Vector  131  Occ=0.000000D+00  E= 3.312240D-01

 Vector  132  Occ=0.000000D+00  E= 3.344824D-01

 Vector  133  Occ=0.000000D+00  E= 3.390632D-01

 Vector  134  Occ=0.000000D+00  E= 3.479979D-01

 Vector  135  Occ=0.000000D+00  E= 3.512601D-01

 Vector  136  Occ=0.000000D+00  E= 3.539080D-01

 Vector  137  Occ=0.000000D+00  E= 3.569787D-01

 Vector  138  Occ=0.000000D+00  E= 3.611396D-01

 Vector  139  Occ=0.000000D+00  E= 3.652260D-01

 Vector  140  Occ=0.000000D+00  E= 3.702315D-01

 Vector  141  Occ=0.000000D+00  E= 3.736598D-01

 Vector  142  Occ=0.000000D+00  E= 3.760900D-01

 Vector  143  Occ=0.000000D+00  E= 3.778881D-01

 Vector  144  Occ=0.000000D+00  E= 3.842679D-01

 Vector  145  Occ=0.000000D+00  E= 3.860506D-01

 Vector  146  Occ=0.000000D+00  E= 3.904654D-01

 Vector  147  Occ=0.000000D+00  E= 3.962361D-01

 Vector  148  Occ=0.000000D+00  E= 3.982133D-01

 Vector  149  Occ=0.000000D+00  E= 3.992540D-01

 Vector  150  Occ=0.000000D+00  E= 4.024657D-01

 Vector  151  Occ=0.000000D+00  E= 4.111427D-01

 Vector  152  Occ=0.000000D+00  E= 4.133217D-01

 Vector  153  Occ=0.000000D+00  E= 4.178754D-01

 Vector  154  Occ=0.000000D+00  E= 4.219025D-01

 Vector  155  Occ=0.000000D+00  E= 4.258738D-01

 Vector  156  Occ=0.000000D+00  E= 4.277935D-01

 Vector  157  Occ=0.000000D+00  E= 4.302636D-01

 Vector  158  Occ=0.000000D+00  E= 4.346731D-01

 Vector  159  Occ=0.000000D+00  E= 4.412125D-01

 Vector  160  Occ=0.000000D+00  E= 4.449721D-01

 Vector  161  Occ=0.000000D+00  E= 4.525846D-01

 Vector  162  Occ=0.000000D+00  E= 4.550722D-01

 Vector  163  Occ=0.000000D+00  E= 4.611688D-01

 Vector  164  Occ=0.000000D+00  E= 4.623400D-01

 Vector  165  Occ=0.000000D+00  E= 4.655411D-01

 Vector  166  Occ=0.000000D+00  E= 4.704594D-01

 Vector  167  Occ=0.000000D+00  E= 4.728418D-01

 Vector  168  Occ=0.000000D+00  E= 4.765797D-01

 Vector  169  Occ=0.000000D+00  E= 4.805587D-01

 Vector  170  Occ=0.000000D+00  E= 4.889098D-01

 Vector  171  Occ=0.000000D+00  E= 4.931029D-01

 Vector  172  Occ=0.000000D+00  E= 4.961583D-01

 Vector  173  Occ=0.000000D+00  E= 4.992142D-01

 Vector  174  Occ=0.000000D+00  E= 5.026104D-01

       Multipole analysis of the density wrt the origin
       ------------------------------------------------

     L   x y z        total         open         nuclear
     -   - - -        -----         ----         -------
     0   0 0 0     -0.000000      0.000000    124.000000

     1   1 0 0     -1.006672      0.000000      0.000000
     1   0 1 0      1.239625      0.000000     -0.000000
     1   0 0 1     -1.221046      0.000000      0.000000

     2   2 0 0    -73.769476      0.000000    678.624404
     2   1 1 0      2.535169      0.000000     -6.758068
     2   1 0 1     -3.193107      0.000000    -14.640438
     2   0 2 0    -68.203457      0.000000   4104.433632
     2   0 1 1      3.751078      0.000000     28.752134

 Total times  cpu:     3837.1s     wall:     3909.1s
