 Output coordinates in angstroms (scale by  1.889725989 to convert to a.u.)

  No.       Tag          Charge          X              Y              Z
 ---- ---------------- ---------- -------------- -------------- --------------
    1 H                    1.0000     1.03339929    -2.83516587     3.14453565
    2 C                    6.0000     0.21120384    -3.02265896     2.45364349
    3 H                    1.0000    -0.70851394    -2.60580205     2.86096464
    4 H                    1.0000     0.10140296    -4.09496350     2.30650833
    5 C                    6.0000     0.52465538    -2.36473223     1.13174957
    6 O                    8.0000     1.56559127    -1.73758956     0.98566212
    7 N                    7.0000    -0.39474039    -2.47957742     0.17333473
    8 H                    1.0000    -1.22911060    -3.00574712     0.37673778
    9 C                    6.0000    -0.21502010    -2.00035185    -1.20518820
   10 H                    1.0000     0.66996413    -2.48517776    -1.62024212
   11 C                    6.0000    -1.43329779    -2.45350190    -2.02077297
   12 H                    1.0000    -2.33900314    -1.97993713    -1.63790323
   13 H                    1.0000    -1.29914222    -2.16667632    -3.06463473
   14 H                    1.0000    -1.53714071    -3.53838060    -1.96737037
   15 C                    6.0000     0.01440026    -0.47631554    -1.34806093
   16 O                    8.0000     0.43046348    -0.01942695    -2.40778600
   17 N                    7.0000    -0.23274485     0.30970546    -0.29550582
   18 H                    1.0000    -0.59327267    -0.11878550     0.53906065
   19 C                    6.0000     0.06875295     1.74394306    -0.24555990
   20 H                    1.0000    -0.24911664     2.20021517    -1.18488874
   21 C                    6.0000    -0.73239610     2.37528330     0.90385852
   22 H                    1.0000    -0.35384415     1.99833407     1.85609205
   23 H                    1.0000    -0.59406152     3.45865863     0.88681614
   24 S                   16.0000    -2.50364351     1.98140710     0.76769637
   25 H                    1.0000    -2.75003629     2.71487043    -0.32514175
   26 C                    6.0000     1.57261892     2.06327295    -0.09013609
   27 O                    8.0000     1.95975439     3.22321541    -0.15501773
   28 N                    7.0000     2.43703428     1.08312685     0.15134623
   29 H                    1.0000     3.41031544     1.31699898     0.24321911
   30 H                    1.0000     2.11763555     0.12703667     0.23881065

         Total SCF energy =  -1097.310892839309

 Vector   89  Occ=0.000000D+00  E= 1.555189D-01

 Vector   90  Occ=0.000000D+00  E= 1.584843D-01

 Vector   91  Occ=0.000000D+00  E= 1.604182D-01

 Vector   92  Occ=0.000000D+00  E= 1.663284D-01

 Vector   93  Occ=0.000000D+00  E= 1.679500D-01

 Vector   94  Occ=0.000000D+00  E= 1.704005D-01

 Vector   95  Occ=0.000000D+00  E= 1.733571D-01

 Vector   96  Occ=0.000000D+00  E= 1.754868D-01

 Vector   97  Occ=0.000000D+00  E= 1.772950D-01

 Vector   98  Occ=0.000000D+00  E= 1.804593D-01

 Vector   99  Occ=0.000000D+00  E= 1.808502D-01

 Vector  100  Occ=0.000000D+00  E= 1.865729D-01

 Vector  101  Occ=0.000000D+00  E= 1.906773D-01

 Vector  102  Occ=0.000000D+00  E= 1.951101D-01

 Vector  103  Occ=0.000000D+00  E= 1.989784D-01

 Vector  104  Occ=0.000000D+00  E= 2.029078D-01

 Vector  105  Occ=0.000000D+00  E= 2.083494D-01

 Vector  106  Occ=0.000000D+00  E= 2.117800D-01

 Vector  107  Occ=0.000000D+00  E= 2.145877D-01

 Vector  108  Occ=0.000000D+00  E= 2.176471D-01

 Vector  109  Occ=0.000000D+00  E= 2.204607D-01

 Vector  110  Occ=0.000000D+00  E= 2.284808D-01

 Vector  111  Occ=0.000000D+00  E= 2.343154D-01

 Vector  112  Occ=0.000000D+00  E= 2.425043D-01

 Vector  113  Occ=0.000000D+00  E= 2.465667D-01

 Vector  114  Occ=0.000000D+00  E= 2.506713D-01

 Vector  115  Occ=0.000000D+00  E= 2.573883D-01

 Vector  116  Occ=0.000000D+00  E= 2.642704D-01

 Vector  117  Occ=0.000000D+00  E= 2.662723D-01

 Vector  118  Occ=0.000000D+00  E= 2.687159D-01

 Vector  119  Occ=0.000000D+00  E= 2.703380D-01

 Vector  120  Occ=0.000000D+00  E= 2.777474D-01

 Vector  121  Occ=0.000000D+00  E= 2.839275D-01

 Vector  122  Occ=0.000000D+00  E= 2.953309D-01

 Vector  123  Occ=0.000000D+00  E= 3.002686D-01

 Vector  124  Occ=0.000000D+00  E= 3.055492D-01

 Vector  125  Occ=0.000000D+00  E= 3.144156D-01

 Vector  126  Occ=0.000000D+00  E= 3.189979D-01

 Vector  127  Occ=0.000000D+00  E= 3.290953D-01

 Vector  128  Occ=0.000000D+00  E= 3.304983D-01

 Vector  129  Occ=0.000000D+00  E= 3.339461D-01

 Vector  130  Occ=0.000000D+00  E= 3.357074D-01

 Vector  131  Occ=0.000000D+00  E= 3.398636D-01

 Vector  132  Occ=0.000000D+00  E= 3.484106D-01

 Vector  133  Occ=0.000000D+00  E= 3.531411D-01

 Vector  134  Occ=0.000000D+00  E= 3.609257D-01

 Vector  135  Occ=0.000000D+00  E= 3.643362D-01

 Vector  136  Occ=0.000000D+00  E= 3.664384D-01

 Vector  137  Occ=0.000000D+00  E= 3.694929D-01

 Vector  138  Occ=0.000000D+00  E= 3.757149D-01

 Vector  139  Occ=0.000000D+00  E= 3.798955D-01

 Vector  140  Occ=0.000000D+00  E= 3.859137D-01

 Vector  141  Occ=0.000000D+00  E= 3.882706D-01

 Vector  142  Occ=0.000000D+00  E= 3.912028D-01

 Vector  143  Occ=0.000000D+00  E= 3.940277D-01

 Vector  144  Occ=0.000000D+00  E= 4.010202D-01

 Vector  145  Occ=0.000000D+00  E= 4.015245D-01

 Vector  146  Occ=0.000000D+00  E= 4.049656D-01

 Vector  147  Occ=0.000000D+00  E= 4.060537D-01

 Vector  148  Occ=0.000000D+00  E= 4.093565D-01

 Vector  149  Occ=0.000000D+00  E= 4.161120D-01

 Vector  150  Occ=0.000000D+00  E= 4.227863D-01

 Vector  151  Occ=0.000000D+00  E= 4.253726D-01

 Vector  152  Occ=0.000000D+00  E= 4.327689D-01

 Vector  153  Occ=0.000000D+00  E= 4.359022D-01

 Vector  154  Occ=0.000000D+00  E= 4.388732D-01

 Vector  155  Occ=0.000000D+00  E= 4.428526D-01

 Vector  156  Occ=0.000000D+00  E= 4.466884D-01

 Vector  157  Occ=0.000000D+00  E= 4.532425D-01

 Vector  158  Occ=0.000000D+00  E= 4.560102D-01

 Vector  159  Occ=0.000000D+00  E= 4.614348D-01

 Vector  160  Occ=0.000000D+00  E= 4.673726D-01

 Vector  161  Occ=0.000000D+00  E= 4.719747D-01

 Vector  162  Occ=0.000000D+00  E= 4.768497D-01

 Vector  163  Occ=0.000000D+00  E= 4.776884D-01

 Vector  164  Occ=0.000000D+00  E= 4.821591D-01

 Vector  165  Occ=0.000000D+00  E= 4.856651D-01

 Vector  166  Occ=0.000000D+00  E= 4.947928D-01

 Vector  167  Occ=0.000000D+00  E= 4.997726D-01

 Vector  168  Occ=0.000000D+00  E= 5.022247D-01

       Multipole analysis of the density wrt the origin
       ------------------------------------------------

     L   x y z        total         open         nuclear
     -   - - -        -----         ----         -------
     0   0 0 0      0.000000      0.000000    124.000000

     1   1 0 0     -1.745002      0.000000      0.000000
     1   0 1 0     -2.746027      0.000000      0.000000
     1   0 0 1      1.257986      0.000000      0.000000

     2   2 0 0    -76.405687      0.000000    947.731557
     2   1 1 0     -1.899145      0.000000     13.361461
     2   1 0 1      4.189191      0.000000     20.659339
     2   0 2 0    -71.282649      0.000000   1954.736495
     2   0 1 1     -0.954801      0.000000     -4.597490

 Total times  cpu:     2932.5s     wall:     2977.2s
