 Output coordinates in angstroms (scale by  1.889725989 to convert to a.u.)

  No.       Tag          Charge          X              Y              Z
 ---- ---------------- ---------- -------------- -------------- --------------
    1 H                    1.0000    -1.54944678    -6.38260443     0.58067652
    2 C                    6.0000    -1.69343247    -5.43145616     0.06893530
    3 H                    1.0000    -2.56071516    -4.92057292     0.48174162
    4 H                    1.0000    -1.83573641    -5.60773690    -0.99540614
    5 C                    6.0000    -0.46475694    -4.57667420     0.27304371
    6 O                    8.0000     0.47676315    -5.00066470     0.93003151
    7 N                    7.0000    -0.48011105    -3.36978215    -0.28749340
    8 H                    1.0000    -1.30807023    -3.07697389    -0.78372007
    9 C                    6.0000     0.60257108    -2.39076220    -0.18991596
   10 H                    1.0000     1.09508053    -2.50226709     0.77790328
   11 C                    6.0000     1.63160800    -2.67663532    -1.29389448
   12 H                    1.0000     2.46547454    -1.97746169    -1.21702567
   13 H                    1.0000     2.01697588    -3.69153888    -1.18652426
   14 H                    1.0000     1.16583665    -2.57128793    -2.27444789
   15 C                    6.0000     0.06017608    -0.95222846    -0.28166739
   16 O                    8.0000    -1.06178278    -0.73215582    -0.74107392
   17 N                    7.0000     0.85882989     0.02880567     0.14606283
   18 H                    1.0000     1.78028733    -0.20655621     0.49027638
   19 C                    6.0000     0.53485173     1.45660942     0.08855973
   20 H                    1.0000    -0.01777851     1.64428985    -0.83360017
   21 C                    6.0000    -0.36259314     1.81389801     1.29445174
   22 H                    1.0000    -1.22407875     1.14465257     1.29777951
   23 H                    1.0000     0.19560435     1.64032365     2.21676867
   24 C                    6.0000    -0.88951197     3.25707331     1.30692576
   25 H                    1.0000    -1.60804390     3.36358547     2.12064010
   26 H                    1.0000    -0.06664787     3.94608215     1.49612277
   27 C                    6.0000    -1.56654873     3.63954669    -0.00472447
   28 O                    8.0000    -0.99729092     4.32171014    -0.83795888
   29 N                    7.0000    -2.76004721     3.16521752    -0.27590189
   30 H                    1.0000    -3.14033021     3.41326897    -1.17320693
   31 H                    1.0000    -3.22580352     2.54211770     0.35753530
   32 C                    6.0000     1.82611414     2.29354470     0.03991059
   33 O                    8.0000     2.86515183     1.86353435     0.53139891
   34 N                    7.0000     1.79682596     3.48365156    -0.54388807
   35 H                    1.0000     0.92949548     3.84857828    -0.91986987
   36 H                    1.0000     2.64581651     4.02196662    -0.57602745

         Total SCF energy =   -906.639176369522

 Vector  112  Occ=0.000000D+00  E= 1.901416D-01

 Vector  113  Occ=0.000000D+00  E= 1.936816D-01

 Vector  114  Occ=0.000000D+00  E= 1.972172D-01

 Vector  115  Occ=0.000000D+00  E= 2.012278D-01

 Vector  116  Occ=0.000000D+00  E= 2.053039D-01

 Vector  117  Occ=0.000000D+00  E= 2.065835D-01

 Vector  118  Occ=0.000000D+00  E= 2.093382D-01

 Vector  119  Occ=0.000000D+00  E= 2.110307D-01

 Vector  120  Occ=0.000000D+00  E= 2.130079D-01

 Vector  121  Occ=0.000000D+00  E= 2.166599D-01

 Vector  122  Occ=0.000000D+00  E= 2.234315D-01

 Vector  123  Occ=0.000000D+00  E= 2.262674D-01

 Vector  124  Occ=0.000000D+00  E= 2.305686D-01

 Vector  125  Occ=0.000000D+00  E= 2.331471D-01

 Vector  126  Occ=0.000000D+00  E= 2.430459D-01

 Vector  127  Occ=0.000000D+00  E= 2.451452D-01

 Vector  128  Occ=0.000000D+00  E= 2.467228D-01

 Vector  129  Occ=0.000000D+00  E= 2.521340D-01

 Vector  130  Occ=0.000000D+00  E= 2.625383D-01

 Vector  131  Occ=0.000000D+00  E= 2.649387D-01

 Vector  132  Occ=0.000000D+00  E= 2.728676D-01

 Vector  133  Occ=0.000000D+00  E= 2.740629D-01

 Vector  134  Occ=0.000000D+00  E= 2.831759D-01

 Vector  135  Occ=0.000000D+00  E= 2.857399D-01

 Vector  136  Occ=0.000000D+00  E= 2.948804D-01

 Vector  137  Occ=0.000000D+00  E= 2.997047D-01

 Vector  138  Occ=0.000000D+00  E= 3.023248D-01

 Vector  139  Occ=0.000000D+00  E= 3.054987D-01

 Vector  140  Occ=0.000000D+00  E= 3.073756D-01

 Vector  141  Occ=0.000000D+00  E= 3.123179D-01

 Vector  142  Occ=0.000000D+00  E= 3.173147D-01

 Vector  143  Occ=0.000000D+00  E= 3.220184D-01

 Vector  144  Occ=0.000000D+00  E= 3.267223D-01

 Vector  145  Occ=0.000000D+00  E= 3.298483D-01

 Vector  146  Occ=0.000000D+00  E= 3.337217D-01

 Vector  147  Occ=0.000000D+00  E= 3.397159D-01

 Vector  148  Occ=0.000000D+00  E= 3.443189D-01

 Vector  149  Occ=0.000000D+00  E= 3.460808D-01

 Vector  150  Occ=0.000000D+00  E= 3.543207D-01

 Vector  151  Occ=0.000000D+00  E= 3.552470D-01

 Vector  152  Occ=0.000000D+00  E= 3.558271D-01

 Vector  153  Occ=0.000000D+00  E= 3.615107D-01

 Vector  154  Occ=0.000000D+00  E= 3.646221D-01

 Vector  155  Occ=0.000000D+00  E= 3.677988D-01

 Vector  156  Occ=0.000000D+00  E= 3.695247D-01

 Vector  157  Occ=0.000000D+00  E= 3.735532D-01

 Vector  158  Occ=0.000000D+00  E= 3.797030D-01

 Vector  159  Occ=0.000000D+00  E= 3.828533D-01

 Vector  160  Occ=0.000000D+00  E= 3.877621D-01

 Vector  161  Occ=0.000000D+00  E= 3.887604D-01

 Vector  162  Occ=0.000000D+00  E= 3.899818D-01

 Vector  163  Occ=0.000000D+00  E= 3.910509D-01

 Vector  164  Occ=0.000000D+00  E= 3.964563D-01

 Vector  165  Occ=0.000000D+00  E= 4.009655D-01

 Vector  166  Occ=0.000000D+00  E= 4.059344D-01

 Vector  167  Occ=0.000000D+00  E= 4.080222D-01

 Vector  168  Occ=0.000000D+00  E= 4.161012D-01

 Vector  169  Occ=0.000000D+00  E= 4.175020D-01

 Vector  170  Occ=0.000000D+00  E= 4.191884D-01

 Vector  171  Occ=0.000000D+00  E= 4.296871D-01

 Vector  172  Occ=0.000000D+00  E= 4.308524D-01

 Vector  173  Occ=0.000000D+00  E= 4.354010D-01

 Vector  174  Occ=0.000000D+00  E= 4.388870D-01

 Vector  175  Occ=0.000000D+00  E= 4.414910D-01

 Vector  176  Occ=0.000000D+00  E= 4.419512D-01

 Vector  177  Occ=0.000000D+00  E= 4.434853D-01

 Vector  178  Occ=0.000000D+00  E= 4.484559D-01

 Vector  179  Occ=0.000000D+00  E= 4.529811D-01

 Vector  180  Occ=0.000000D+00  E= 4.564450D-01

 Vector  181  Occ=0.000000D+00  E= 4.617499D-01

 Vector  182  Occ=0.000000D+00  E= 4.650446D-01

 Vector  183  Occ=0.000000D+00  E= 4.679665D-01

 Vector  184  Occ=0.000000D+00  E= 4.729191D-01

 Vector  185  Occ=0.000000D+00  E= 4.759405D-01

 Vector  186  Occ=0.000000D+00  E= 4.821900D-01

 Vector  187  Occ=0.000000D+00  E= 4.867172D-01

 Vector  188  Occ=0.000000D+00  E= 4.903026D-01

 Vector  189  Occ=0.000000D+00  E= 4.929381D-01

 Vector  190  Occ=0.000000D+00  E= 4.962901D-01

 Vector  191  Occ=0.000000D+00  E= 5.009224D-01

       Multipole analysis of the density wrt the origin
       ------------------------------------------------

     L   x y z        total         open         nuclear
     -   - - -        -----         ----         -------
     0   0 0 0     -0.000000      0.000000    138.000000

     1   1 0 0     -1.934563      0.000000     -0.000000
     1   0 1 0      1.061786      0.000000     -0.000000
     1   0 0 1     -0.116037      0.000000      0.000000

     2   2 0 0    -77.765958      0.000000   1099.894795
     2   1 1 0      3.113803      0.000000     12.378752
     2   1 0 1     -5.944683      0.000000    -17.855805
     2   0 2 0    -91.171624      0.000000   5098.364372
     2   0 1 1     10.781643      0.000000     35.985897

 Total times  cpu:     4881.7s     wall:     4965.4s
