 Output coordinates in angstroms (scale by  1.889725989 to convert to a.u.)

  No.       Tag          Charge          X              Y              Z
 ---- ---------------- ---------- -------------- -------------- --------------
    1 H                    1.0000     1.39507495     4.98329661    -1.65175889
    2 C                    6.0000     0.53231148     4.78947337    -1.01628997
    3 H                    1.0000    -0.37328608     4.79253052    -1.62057279
    4 H                    1.0000     0.46896111     5.55410876    -0.24392060
    5 C                    6.0000     0.69520883     3.43416333    -0.37013200
    6 O                    8.0000     1.68363034     2.75169209    -0.60659331
    7 N                    7.0000    -0.27471434     3.04121023     0.45336111
    8 H                    1.0000    -1.07601680     3.63547831     0.57377214
    9 C                    6.0000    -0.29533878     1.71617205     1.06934686
   10 H                    1.0000     0.68489216     1.52758756     1.51046270
   11 C                    6.0000    -1.33522007     1.70492216     2.19675200
   12 H                    1.0000    -1.33258034     0.73100592     2.68843909
   13 H                    1.0000    -1.09435738     2.47344842     2.93233445
   14 H                    1.0000    -2.32965982     1.89265548     1.78864200
   15 C                    6.0000    -0.57111701     0.61486496     0.02559590
   16 O                    8.0000    -1.49474097     0.72814078    -0.77987314
   17 N                    7.0000     0.19500810    -0.47726882     0.07419757
   18 H                    1.0000     0.92823847    -0.51601674     0.76557072
   19 C                    6.0000     0.11416156    -1.61872609    -0.84631541
   20 H                    1.0000    -0.03004010    -1.22603444    -1.85433979
   21 C                    6.0000     1.47058732    -2.34272043    -0.81550403
   22 H                    1.0000     1.45386740    -3.18210677    -1.51380555
   23 H                    1.0000     2.25846573    -1.65181779    -1.11905986
   24 S                   16.0000     1.82271158    -2.96013099     0.85776813
   25 H                    1.0000     0.85401638    -3.89070590     0.84946422
   26 C                    6.0000    -1.08899288    -2.55736156    -0.57710014
   27 O                    8.0000    -0.94979087    -3.77512699    -0.51428169
   28 N                    7.0000    -2.28501055    -2.02044409    -0.37904368
   29 H                    1.0000    -3.06423659    -2.63003416    -0.19915839
   30 H                    1.0000    -2.39609756    -1.01815494    -0.46209871

         Total SCF energy =  -1097.313810864578

 Vector   88  Occ=0.000000D+00  E= 1.517811D-01

 Vector   89  Occ=0.000000D+00  E= 1.569380D-01

 Vector   90  Occ=0.000000D+00  E= 1.596686D-01

 Vector   91  Occ=0.000000D+00  E= 1.628852D-01

 Vector   92  Occ=0.000000D+00  E= 1.646771D-01

 Vector   93  Occ=0.000000D+00  E= 1.673331D-01

 Vector   94  Occ=0.000000D+00  E= 1.716449D-01

 Vector   95  Occ=0.000000D+00  E= 1.736876D-01

 Vector   96  Occ=0.000000D+00  E= 1.765813D-01

 Vector   97  Occ=0.000000D+00  E= 1.777303D-01

 Vector   98  Occ=0.000000D+00  E= 1.806699D-01

 Vector   99  Occ=0.000000D+00  E= 1.853466D-01

 Vector  100  Occ=0.000000D+00  E= 1.883972D-01

 Vector  101  Occ=0.000000D+00  E= 1.905059D-01

 Vector  102  Occ=0.000000D+00  E= 1.935587D-01

 Vector  103  Occ=0.000000D+00  E= 1.974519D-01

 Vector  104  Occ=0.000000D+00  E= 2.008258D-01

 Vector  105  Occ=0.000000D+00  E= 2.077447D-01

 Vector  106  Occ=0.000000D+00  E= 2.096598D-01

 Vector  107  Occ=0.000000D+00  E= 2.157499D-01

 Vector  108  Occ=0.000000D+00  E= 2.171519D-01

 Vector  109  Occ=0.000000D+00  E= 2.232469D-01

 Vector  110  Occ=0.000000D+00  E= 2.281891D-01

 Vector  111  Occ=0.000000D+00  E= 2.318833D-01

 Vector  112  Occ=0.000000D+00  E= 2.368666D-01

 Vector  113  Occ=0.000000D+00  E= 2.408163D-01

 Vector  114  Occ=0.000000D+00  E= 2.476175D-01

 Vector  115  Occ=0.000000D+00  E= 2.547391D-01

 Vector  116  Occ=0.000000D+00  E= 2.573402D-01

 Vector  117  Occ=0.000000D+00  E= 2.632558D-01

 Vector  118  Occ=0.000000D+00  E= 2.685650D-01

 Vector  119  Occ=0.000000D+00  E= 2.723003D-01

 Vector  120  Occ=0.000000D+00  E= 2.823618D-01

 Vector  121  Occ=0.000000D+00  E= 2.874707D-01

 Vector  122  Occ=0.000000D+00  E= 2.959926D-01

 Vector  123  Occ=0.000000D+00  E= 3.026210D-01

 Vector  124  Occ=0.000000D+00  E= 3.083006D-01

 Vector  125  Occ=0.000000D+00  E= 3.151627D-01

 Vector  126  Occ=0.000000D+00  E= 3.188247D-01

 Vector  127  Occ=0.000000D+00  E= 3.227700D-01

 Vector  128  Occ=0.000000D+00  E= 3.258906D-01

 Vector  129  Occ=0.000000D+00  E= 3.348457D-01

 Vector  130  Occ=0.000000D+00  E= 3.399804D-01

 Vector  131  Occ=0.000000D+00  E= 3.426138D-01

 Vector  132  Occ=0.000000D+00  E= 3.444306D-01

 Vector  133  Occ=0.000000D+00  E= 3.472343D-01

 Vector  134  Occ=0.000000D+00  E= 3.604112D-01

 Vector  135  Occ=0.000000D+00  E= 3.614297D-01

 Vector  136  Occ=0.000000D+00  E= 3.662868D-01

 Vector  137  Occ=0.000000D+00  E= 3.697517D-01

 Vector  138  Occ=0.000000D+00  E= 3.715337D-01

 Vector  139  Occ=0.000000D+00  E= 3.772570D-01

 Vector  140  Occ=0.000000D+00  E= 3.808654D-01

 Vector  141  Occ=0.000000D+00  E= 3.856987D-01

 Vector  142  Occ=0.000000D+00  E= 3.875953D-01

 Vector  143  Occ=0.000000D+00  E= 3.934877D-01

 Vector  144  Occ=0.000000D+00  E= 3.937400D-01

 Vector  145  Occ=0.000000D+00  E= 4.010020D-01

 Vector  146  Occ=0.000000D+00  E= 4.029133D-01

 Vector  147  Occ=0.000000D+00  E= 4.091486D-01

 Vector  148  Occ=0.000000D+00  E= 4.125958D-01

 Vector  149  Occ=0.000000D+00  E= 4.174512D-01

 Vector  150  Occ=0.000000D+00  E= 4.210656D-01

 Vector  151  Occ=0.000000D+00  E= 4.244960D-01

 Vector  152  Occ=0.000000D+00  E= 4.274743D-01

 Vector  153  Occ=0.000000D+00  E= 4.354978D-01

 Vector  154  Occ=0.000000D+00  E= 4.371807D-01

 Vector  155  Occ=0.000000D+00  E= 4.401558D-01

 Vector  156  Occ=0.000000D+00  E= 4.443338D-01

 Vector  157  Occ=0.000000D+00  E= 4.478451D-01

 Vector  158  Occ=0.000000D+00  E= 4.597877D-01

 Vector  159  Occ=0.000000D+00  E= 4.638980D-01

 Vector  160  Occ=0.000000D+00  E= 4.673811D-01

 Vector  161  Occ=0.000000D+00  E= 4.715157D-01

 Vector  162  Occ=0.000000D+00  E= 4.726144D-01

 Vector  163  Occ=0.000000D+00  E= 4.790038D-01

 Vector  164  Occ=0.000000D+00  E= 4.829502D-01

 Vector  165  Occ=0.000000D+00  E= 4.923076D-01

 Vector  166  Occ=0.000000D+00  E= 4.951822D-01

 Vector  167  Occ=0.000000D+00  E= 5.060115D-01

       Multipole analysis of the density wrt the origin
       ------------------------------------------------

     L   x y z        total         open         nuclear
     -   - - -        -----         ----         -------
     0   0 0 0      0.000000      0.000000    124.000000

     1   1 0 0     -1.026427      0.000000      0.000000
     1   0 1 0      1.778648      0.000000     -0.000000
     1   0 0 1      0.814474      0.000000      0.000000

     2   2 0 0    -75.378517      0.000000    758.795549
     2   1 1 0     -4.111584      0.000000     -9.056885
     2   1 0 1     -3.865951      0.000000    -24.565936
     2   0 2 0    -73.950433      0.000000   3177.377874
     2   0 1 1      3.741697      0.000000     10.482553

 Total times  cpu:     3527.2s     wall:     3584.4s
