 Output coordinates in angstroms (scale by  1.889725989 to convert to a.u.)

  No.       Tag          Charge          X              Y              Z
 ---- ---------------- ---------- -------------- -------------- --------------
    1 H                    1.0000    -0.41495719    -4.65010325    -1.68572643
    2 C                    6.0000    -1.33882116    -4.12528732    -1.91936847
    3 H                    1.0000    -2.19443839    -4.71867048    -1.60243066
    4 H                    1.0000    -1.39682503    -3.94947460    -2.99256576
    5 C                    6.0000    -1.35700346    -2.79560158    -1.20425643
    6 O                    8.0000    -1.41875378    -1.75248894    -1.84220229
    7 N                    7.0000    -1.29100926    -2.82963410     0.12593023
    8 H                    1.0000    -1.23345437    -3.73005110     0.57118372
    9 C                    6.0000    -1.31183059    -1.64777648     0.99706112
   10 H                    1.0000    -2.07452366    -0.96411491     0.61986072
   11 C                    6.0000    -1.74930947    -2.09993263     2.39877045
   12 H                    1.0000    -2.71910243    -2.59583669     2.34634160
   13 H                    1.0000    -1.01277848    -2.78561266     2.81993074
   14 H                    1.0000    -1.83518059    -1.23051448     3.05255576
   15 C                    6.0000     0.02306216    -0.86196584     0.99186782
   16 O                    8.0000     0.67083339    -0.71618825     2.02718194
   17 N                    7.0000     0.43350721    -0.37904855    -0.18586847
   18 H                    1.0000    -0.17971163    -0.57369150    -0.97185688
   19 C                    6.0000     1.63861309     0.41861527    -0.48898268
   20 H                    1.0000     1.61334286     0.60970786    -1.56199295
   21 C                    6.0000     1.55660694     1.79588867     0.19433422
   22 H                    1.0000     1.75000477     1.67245500     1.26068238
   23 H                    1.0000     2.35072312     2.42856754    -0.20430713
   24 C                    6.0000     0.23037859     2.51499888     0.01445685
   25 C                    6.0000    -0.70704496     2.54416048     1.06611825
   26 H                    1.0000    -0.47662636     2.06558863     2.00757311
   27 C                    6.0000    -1.94317608     3.19034814     0.89178999
   28 H                    1.0000    -2.65993460     3.21304138     1.70107131
   29 C                    6.0000    -2.24640924     3.81023743    -0.33212092
   30 H                    1.0000    -3.19660307     4.30758544    -0.46642892
   31 C                    6.0000    -1.31297960     3.78308632    -1.38370113
   32 H                    1.0000    -1.54580035     4.25986547    -2.32503005
   33 C                    6.0000    -0.07548287     3.13666916    -1.21041328
   34 H                    1.0000     0.63864734     3.11575691    -2.02065381
   35 C                    6.0000     3.00547803    -0.25346784    -0.23826663
   36 O                    8.0000     3.94969149    -0.00526930    -0.97599451
   37 N                    7.0000     3.15185693    -1.12372540     0.75040723
   38 H                    1.0000     4.05447967    -1.54468631     0.89000701
   39 H                    1.0000     2.38559716    -1.27121996     1.39288705

         Total SCF energy =   -929.346979263748

 Vector  128  Occ=0.000000D+00  E= 2.125163D-01

 Vector  129  Occ=0.000000D+00  E= 2.145304D-01

 Vector  130  Occ=0.000000D+00  E= 2.168520D-01

 Vector  131  Occ=0.000000D+00  E= 2.189799D-01

 Vector  132  Occ=0.000000D+00  E= 2.260958D-01

 Vector  133  Occ=0.000000D+00  E= 2.297040D-01

 Vector  134  Occ=0.000000D+00  E= 2.313572D-01

 Vector  135  Occ=0.000000D+00  E= 2.326314D-01

 Vector  136  Occ=0.000000D+00  E= 2.361602D-01

 Vector  137  Occ=0.000000D+00  E= 2.401527D-01

 Vector  138  Occ=0.000000D+00  E= 2.448486D-01

 Vector  139  Occ=0.000000D+00  E= 2.505393D-01

 Vector  140  Occ=0.000000D+00  E= 2.515626D-01

 Vector  141  Occ=0.000000D+00  E= 2.580244D-01

 Vector  142  Occ=0.000000D+00  E= 2.608674D-01

 Vector  143  Occ=0.000000D+00  E= 2.648339D-01

 Vector  144  Occ=0.000000D+00  E= 2.708901D-01

 Vector  145  Occ=0.000000D+00  E= 2.787477D-01

 Vector  146  Occ=0.000000D+00  E= 2.842870D-01

 Vector  147  Occ=0.000000D+00  E= 2.933496D-01

 Vector  148  Occ=0.000000D+00  E= 2.966719D-01

 Vector  149  Occ=0.000000D+00  E= 3.001074D-01

 Vector  150  Occ=0.000000D+00  E= 3.038143D-01

 Vector  151  Occ=0.000000D+00  E= 3.120953D-01

 Vector  152  Occ=0.000000D+00  E= 3.135672D-01

 Vector  153  Occ=0.000000D+00  E= 3.191804D-01

 Vector  154  Occ=0.000000D+00  E= 3.206598D-01

 Vector  155  Occ=0.000000D+00  E= 3.285445D-01

 Vector  156  Occ=0.000000D+00  E= 3.318263D-01

 Vector  157  Occ=0.000000D+00  E= 3.326112D-01

 Vector  158  Occ=0.000000D+00  E= 3.356299D-01

 Vector  159  Occ=0.000000D+00  E= 3.379436D-01

 Vector  160  Occ=0.000000D+00  E= 3.420730D-01

 Vector  161  Occ=0.000000D+00  E= 3.449107D-01

 Vector  162  Occ=0.000000D+00  E= 3.487021D-01

 Vector  163  Occ=0.000000D+00  E= 3.516339D-01

 Vector  164  Occ=0.000000D+00  E= 3.557227D-01

 Vector  165  Occ=0.000000D+00  E= 3.591111D-01

 Vector  166  Occ=0.000000D+00  E= 3.601870D-01

 Vector  167  Occ=0.000000D+00  E= 3.635096D-01

 Vector  168  Occ=0.000000D+00  E= 3.705522D-01

 Vector  169  Occ=0.000000D+00  E= 3.727098D-01

 Vector  170  Occ=0.000000D+00  E= 3.775484D-01

 Vector  171  Occ=0.000000D+00  E= 3.804517D-01

 Vector  172  Occ=0.000000D+00  E= 3.830833D-01

 Vector  173  Occ=0.000000D+00  E= 3.878123D-01

 Vector  174  Occ=0.000000D+00  E= 3.880210D-01

 Vector  175  Occ=0.000000D+00  E= 3.918066D-01

 Vector  176  Occ=0.000000D+00  E= 3.974644D-01

 Vector  177  Occ=0.000000D+00  E= 3.986360D-01

 Vector  178  Occ=0.000000D+00  E= 3.999688D-01

 Vector  179  Occ=0.000000D+00  E= 4.055809D-01

 Vector  180  Occ=0.000000D+00  E= 4.063515D-01

 Vector  181  Occ=0.000000D+00  E= 4.096341D-01

 Vector  182  Occ=0.000000D+00  E= 4.130284D-01

 Vector  183  Occ=0.000000D+00  E= 4.139367D-01

 Vector  184  Occ=0.000000D+00  E= 4.172087D-01

 Vector  185  Occ=0.000000D+00  E= 4.222762D-01

 Vector  186  Occ=0.000000D+00  E= 4.266619D-01

 Vector  187  Occ=0.000000D+00  E= 4.280690D-01

 Vector  188  Occ=0.000000D+00  E= 4.332544D-01

 Vector  189  Occ=0.000000D+00  E= 4.372146D-01

 Vector  190  Occ=0.000000D+00  E= 4.405956D-01

 Vector  191  Occ=0.000000D+00  E= 4.460997D-01

 Vector  192  Occ=0.000000D+00  E= 4.476343D-01

 Vector  193  Occ=0.000000D+00  E= 4.489937D-01

 Vector  194  Occ=0.000000D+00  E= 4.504953D-01

 Vector  195  Occ=0.000000D+00  E= 4.578170D-01

 Vector  196  Occ=0.000000D+00  E= 4.638083D-01

 Vector  197  Occ=0.000000D+00  E= 4.681572D-01

 Vector  198  Occ=0.000000D+00  E= 4.716181D-01

 Vector  199  Occ=0.000000D+00  E= 4.739945D-01

 Vector  200  Occ=0.000000D+00  E= 4.772819D-01

 Vector  201  Occ=0.000000D+00  E= 4.801564D-01

 Vector  202  Occ=0.000000D+00  E= 4.878361D-01

 Vector  203  Occ=0.000000D+00  E= 4.894629D-01

 Vector  204  Occ=0.000000D+00  E= 4.942122D-01

 Vector  205  Occ=0.000000D+00  E= 4.967525D-01

 Vector  206  Occ=0.000000D+00  E= 4.984112D-01

 Vector  207  Occ=0.000000D+00  E= 5.043121D-01

       Multipole analysis of the density wrt the origin
       ------------------------------------------------

     L   x y z        total         open         nuclear
     -   - - -        -----         ----         -------
     0   0 0 0     -0.000000      0.000000    148.000000

     1   1 0 0     -1.928095      0.000000     -0.000000
     1   0 1 0     -1.829712      0.000000      0.000000
     1   0 0 1      0.737368      0.000000      0.000000

     2   2 0 0    -98.354633      0.000000   1811.299710
     2   1 1 0      0.442524      0.000000     16.415632
     2   1 0 1      1.889421      0.000000     -6.901466
     2   0 2 0    -72.738623      0.000000   3021.728762
     2   0 1 1     -3.023216      0.000000     -6.709864

 Total times  cpu:     8279.2s     wall:     8714.6s
