 Output coordinates in angstroms (scale by  1.889725989 to convert to a.u.)

  No.       Tag          Charge          X              Y              Z
 ---- ---------------- ---------- -------------- -------------- --------------
    1 H                    1.0000     2.51910721    -3.36080062    -1.08511481
    2 C                    6.0000     1.72959104    -3.44262598    -0.33822671
    3 H                    1.0000     2.12533902    -3.17182220     0.63826233
    4 H                    1.0000     1.35106542    -4.46290897    -0.31896562
    5 C                    6.0000     0.61021850    -2.49723144    -0.70317091
    6 O                    8.0000     0.71115383    -1.77151168    -1.68384613
    7 N                    7.0000    -0.45303378    -2.48726372     0.09837586
    8 H                    1.0000    -0.44370158    -3.10197274     0.89507639
    9 C                    6.0000    -1.63854339    -1.63896993    -0.08271694
   10 H                    1.0000    -1.89698651    -1.65194967    -1.14311153
   11 C                    6.0000    -2.80301070    -2.28093477     0.68611205
   12 H                    1.0000    -2.94761989    -3.31033871     0.35640049
   13 H                    1.0000    -2.59683699    -2.26709098     1.75742281
   14 H                    1.0000    -3.72076432    -1.72201231     0.49727615
   15 C                    6.0000    -1.40436645    -0.15114582     0.28982645
   16 O                    8.0000    -2.22962190     0.47498401     0.95117422
   17 N                    7.0000    -0.26066085     0.41341973    -0.10472550
   18 H                    1.0000     0.35314718    -0.15753543    -0.67519013
   19 C                    6.0000     0.25275575     1.72660179     0.30598034
   20 H                    1.0000     0.07283466     1.83250426     1.37724644
   21 C                    6.0000     1.77557367     1.74005204     0.08494715
   22 H                    1.0000     1.98424358     1.66725730    -0.98447970
   23 H                    1.0000     2.18167904     2.68553088     0.45155482
   24 S                   16.0000     2.57035315     0.35710166     0.96213859
   25 H                    1.0000     3.82528119     0.63030176     0.58712481
   26 C                    6.0000    -0.44697512     2.93145845    -0.36637608
   27 O                    8.0000     0.19306851     3.90873700    -0.73662570
   28 N                    7.0000    -1.75679441     2.88616727    -0.56849268
   29 H                    1.0000    -2.28388198     2.09956100    -0.21405471
   30 H                    1.0000    -2.20339650     3.67048625    -1.01364020

         Total SCF energy =  -1097.310489019729

 Vector   88  Occ=0.000000D+00  E= 1.552513D-01

 Vector   89  Occ=0.000000D+00  E= 1.567847D-01

 Vector   90  Occ=0.000000D+00  E= 1.613418D-01

 Vector   91  Occ=0.000000D+00  E= 1.648395D-01

 Vector   92  Occ=0.000000D+00  E= 1.693446D-01

 Vector   93  Occ=0.000000D+00  E= 1.713351D-01

 Vector   94  Occ=0.000000D+00  E= 1.720938D-01

 Vector   95  Occ=0.000000D+00  E= 1.749473D-01

 Vector   96  Occ=0.000000D+00  E= 1.772962D-01

 Vector   97  Occ=0.000000D+00  E= 1.806199D-01

 Vector   98  Occ=0.000000D+00  E= 1.829246D-01

 Vector   99  Occ=0.000000D+00  E= 1.835020D-01

 Vector  100  Occ=0.000000D+00  E= 1.885122D-01

 Vector  101  Occ=0.000000D+00  E= 1.942918D-01

 Vector  102  Occ=0.000000D+00  E= 1.977215D-01

 Vector  103  Occ=0.000000D+00  E= 2.024147D-01

 Vector  104  Occ=0.000000D+00  E= 2.042847D-01

 Vector  105  Occ=0.000000D+00  E= 2.084428D-01

 Vector  106  Occ=0.000000D+00  E= 2.121159D-01

 Vector  107  Occ=0.000000D+00  E= 2.153738D-01

 Vector  108  Occ=0.000000D+00  E= 2.215863D-01

 Vector  109  Occ=0.000000D+00  E= 2.265143D-01

 Vector  110  Occ=0.000000D+00  E= 2.295960D-01

 Vector  111  Occ=0.000000D+00  E= 2.386423D-01

 Vector  112  Occ=0.000000D+00  E= 2.426900D-01

 Vector  113  Occ=0.000000D+00  E= 2.450418D-01

 Vector  114  Occ=0.000000D+00  E= 2.452155D-01

 Vector  115  Occ=0.000000D+00  E= 2.517747D-01

 Vector  116  Occ=0.000000D+00  E= 2.561100D-01

 Vector  117  Occ=0.000000D+00  E= 2.655764D-01

 Vector  118  Occ=0.000000D+00  E= 2.723786D-01

 Vector  119  Occ=0.000000D+00  E= 2.846343D-01

 Vector  120  Occ=0.000000D+00  E= 2.891862D-01

 Vector  121  Occ=0.000000D+00  E= 2.953852D-01

 Vector  122  Occ=0.000000D+00  E= 3.004398D-01

 Vector  123  Occ=0.000000D+00  E= 3.008105D-01

 Vector  124  Occ=0.000000D+00  E= 3.092651D-01

 Vector  125  Occ=0.000000D+00  E= 3.114394D-01

 Vector  126  Occ=0.000000D+00  E= 3.208010D-01

 Vector  127  Occ=0.000000D+00  E= 3.259294D-01

 Vector  128  Occ=0.000000D+00  E= 3.296654D-01

 Vector  129  Occ=0.000000D+00  E= 3.360175D-01

 Vector  130  Occ=0.000000D+00  E= 3.383083D-01

 Vector  131  Occ=0.000000D+00  E= 3.401793D-01

 Vector  132  Occ=0.000000D+00  E= 3.478534D-01

 Vector  133  Occ=0.000000D+00  E= 3.530544D-01

 Vector  134  Occ=0.000000D+00  E= 3.544016D-01

 Vector  135  Occ=0.000000D+00  E= 3.593584D-01

 Vector  136  Occ=0.000000D+00  E= 3.658570D-01

 Vector  137  Occ=0.000000D+00  E= 3.717958D-01

 Vector  138  Occ=0.000000D+00  E= 3.745424D-01

 Vector  139  Occ=0.000000D+00  E= 3.769185D-01

 Vector  140  Occ=0.000000D+00  E= 3.820220D-01

 Vector  141  Occ=0.000000D+00  E= 3.840458D-01

 Vector  142  Occ=0.000000D+00  E= 3.912304D-01

 Vector  143  Occ=0.000000D+00  E= 3.985019D-01

 Vector  144  Occ=0.000000D+00  E= 4.001740D-01

 Vector  145  Occ=0.000000D+00  E= 4.025281D-01

 Vector  146  Occ=0.000000D+00  E= 4.039622D-01

 Vector  147  Occ=0.000000D+00  E= 4.097126D-01

 Vector  148  Occ=0.000000D+00  E= 4.146872D-01

 Vector  149  Occ=0.000000D+00  E= 4.186509D-01

 Vector  150  Occ=0.000000D+00  E= 4.226265D-01

 Vector  151  Occ=0.000000D+00  E= 4.240421D-01

 Vector  152  Occ=0.000000D+00  E= 4.314146D-01

 Vector  153  Occ=0.000000D+00  E= 4.322528D-01

 Vector  154  Occ=0.000000D+00  E= 4.389893D-01

 Vector  155  Occ=0.000000D+00  E= 4.486877D-01

 Vector  156  Occ=0.000000D+00  E= 4.532790D-01

 Vector  157  Occ=0.000000D+00  E= 4.565293D-01

 Vector  158  Occ=0.000000D+00  E= 4.603629D-01

 Vector  159  Occ=0.000000D+00  E= 4.651091D-01

 Vector  160  Occ=0.000000D+00  E= 4.685523D-01

 Vector  161  Occ=0.000000D+00  E= 4.765209D-01

 Vector  162  Occ=0.000000D+00  E= 4.790131D-01

 Vector  163  Occ=0.000000D+00  E= 4.812348D-01

 Vector  164  Occ=0.000000D+00  E= 4.889101D-01

 Vector  165  Occ=0.000000D+00  E= 4.937358D-01

 Vector  166  Occ=0.000000D+00  E= 4.999112D-01

 Vector  167  Occ=0.000000D+00  E= 5.061920D-01

       Multipole analysis of the density wrt the origin
       ------------------------------------------------

     L   x y z        total         open         nuclear
     -   - - -        -----         ----         -------
     0   0 0 0     -0.000000      0.000000    124.000000

     1   1 0 0     -0.160781      0.000000      0.000000
     1   0 1 0     -2.350849      0.000000      0.000000
     1   0 0 1      0.543576      0.000000     -0.000000

     2   2 0 0    -66.703557      0.000000   1315.556151
     2   1 1 0     -1.202667      0.000000      7.443003
     2   1 0 1      4.219230      0.000000     -6.374690
     2   0 2 0    -73.078115      0.000000   2149.567994
     2   0 1 1     -2.375084      0.000000     -9.733489

 Total times  cpu:     2796.4s     wall:     2848.1s
