 Output coordinates in angstroms (scale by  1.889725989 to convert to a.u.)

  No.       Tag          Charge          X              Y              Z
 ---- ---------------- ---------- -------------- -------------- --------------
    1 H                    1.0000    -1.31921763     5.60144893     1.23283173
    2 C                    6.0000    -1.56116169     5.31482802     0.21018735
    3 H                    1.0000    -1.58125936     6.20092361    -0.42217227
    4 H                    1.0000    -2.53096516     4.82199468     0.18131664
    5 C                    6.0000    -0.50254131     4.36930091    -0.30567925
    6 O                    8.0000     0.16107280     4.66786930    -1.28960823
    7 N                    7.0000    -0.35376797     3.22491575     0.35617730
    8 H                    1.0000    -0.96653112     3.03163535     1.13471247
    9 C                    6.0000     0.60194349     2.17432951     0.00338533
   10 H                    1.0000     0.73484438     2.16615389    -1.07970309
   11 C                    6.0000     1.95512982     2.49462864     0.65595350
   12 H                    1.0000     1.85214103     2.50934947     1.74089295
   13 H                    1.0000     2.69216188     1.73993292     0.37636074
   14 H                    1.0000     2.30739115     3.46880125     0.31449973
   15 C                    6.0000     0.08258858     0.78862644     0.42785968
   16 O                    8.0000    -0.81698214     0.68310734     1.26182385
   17 N                    7.0000     0.65528861    -0.27633584    -0.14007081
   18 H                    1.0000     1.41720109    -0.12888184    -0.78863898
   19 C                    6.0000     0.34288157    -1.67199237     0.17954408
   20 H                    1.0000     0.12925746    -1.74937803     1.24892016
   21 C                    6.0000    -0.91518983    -2.09007813    -0.61189426
   22 H                    1.0000    -1.68766132    -1.33185569    -0.48573751
   23 H                    1.0000    -0.66666859    -2.15475468    -1.67047592
   24 C                    6.0000    -1.51335962    -3.41217328    -0.16030448
   25 O                    8.0000    -1.16602275    -3.98172128     0.85871277
   26 N                    7.0000    -2.43528866    -3.95782843    -0.91757611
   27 H                    1.0000    -2.82063531    -4.82533136    -0.58721022
   28 H                    1.0000    -2.74703454    -3.50285702    -1.75381622
   29 C                    6.0000     1.56449100    -2.56461679    -0.12865722
   30 O                    8.0000     2.43797776    -2.18285411    -0.90203174
   31 N                    7.0000     1.64822723    -3.75378612     0.44866206
   32 H                    1.0000     2.44483052    -4.33417776     0.24699463
   33 H                    1.0000     0.88387356    -4.08008890     1.02733637

         Total SCF energy =   -867.600498806298

 Vector   99  Occ=0.000000D+00  E= 1.749167D-01

 Vector  100  Occ=0.000000D+00  E= 1.780969D-01

 Vector  101  Occ=0.000000D+00  E= 1.789034D-01

 Vector  102  Occ=0.000000D+00  E= 1.818145D-01

 Vector  103  Occ=0.000000D+00  E= 1.865592D-01

 Vector  104  Occ=0.000000D+00  E= 1.912400D-01

 Vector  105  Occ=0.000000D+00  E= 1.940983D-01

 Vector  106  Occ=0.000000D+00  E= 1.965525D-01

 Vector  107  Occ=0.000000D+00  E= 1.997533D-01

 Vector  108  Occ=0.000000D+00  E= 2.033738D-01

 Vector  109  Occ=0.000000D+00  E= 2.049653D-01

 Vector  110  Occ=0.000000D+00  E= 2.091695D-01

 Vector  111  Occ=0.000000D+00  E= 2.107500D-01

 Vector  112  Occ=0.000000D+00  E= 2.143614D-01

 Vector  113  Occ=0.000000D+00  E= 2.164737D-01

 Vector  114  Occ=0.000000D+00  E= 2.254509D-01

 Vector  115  Occ=0.000000D+00  E= 2.267958D-01

 Vector  116  Occ=0.000000D+00  E= 2.313558D-01

 Vector  117  Occ=0.000000D+00  E= 2.318404D-01

 Vector  118  Occ=0.000000D+00  E= 2.406740D-01

 Vector  119  Occ=0.000000D+00  E= 2.456960D-01

 Vector  120  Occ=0.000000D+00  E= 2.488235D-01

 Vector  121  Occ=0.000000D+00  E= 2.524905D-01

 Vector  122  Occ=0.000000D+00  E= 2.535279D-01

 Vector  123  Occ=0.000000D+00  E= 2.640414D-01

 Vector  124  Occ=0.000000D+00  E= 2.721912D-01

 Vector  125  Occ=0.000000D+00  E= 2.797850D-01

 Vector  126  Occ=0.000000D+00  E= 2.871373D-01

 Vector  127  Occ=0.000000D+00  E= 2.910325D-01

 Vector  128  Occ=0.000000D+00  E= 2.968915D-01

 Vector  129  Occ=0.000000D+00  E= 2.991708D-01

 Vector  130  Occ=0.000000D+00  E= 3.035645D-01

 Vector  131  Occ=0.000000D+00  E= 3.090207D-01

 Vector  132  Occ=0.000000D+00  E= 3.127819D-01

 Vector  133  Occ=0.000000D+00  E= 3.208420D-01

 Vector  134  Occ=0.000000D+00  E= 3.221595D-01

 Vector  135  Occ=0.000000D+00  E= 3.286279D-01

 Vector  136  Occ=0.000000D+00  E= 3.300101D-01

 Vector  137  Occ=0.000000D+00  E= 3.318442D-01

 Vector  138  Occ=0.000000D+00  E= 3.403809D-01

 Vector  139  Occ=0.000000D+00  E= 3.421722D-01

 Vector  140  Occ=0.000000D+00  E= 3.441251D-01

 Vector  141  Occ=0.000000D+00  E= 3.507042D-01

 Vector  142  Occ=0.000000D+00  E= 3.558958D-01

 Vector  143  Occ=0.000000D+00  E= 3.584649D-01

 Vector  144  Occ=0.000000D+00  E= 3.649461D-01

 Vector  145  Occ=0.000000D+00  E= 3.662120D-01

 Vector  146  Occ=0.000000D+00  E= 3.705634D-01

 Vector  147  Occ=0.000000D+00  E= 3.758748D-01

 Vector  148  Occ=0.000000D+00  E= 3.807384D-01

 Vector  149  Occ=0.000000D+00  E= 3.814918D-01

 Vector  150  Occ=0.000000D+00  E= 3.852316D-01

 Vector  151  Occ=0.000000D+00  E= 3.875309D-01

 Vector  152  Occ=0.000000D+00  E= 3.929544D-01

 Vector  153  Occ=0.000000D+00  E= 3.944675D-01

 Vector  154  Occ=0.000000D+00  E= 3.987958D-01

 Vector  155  Occ=0.000000D+00  E= 4.020674D-01

 Vector  156  Occ=0.000000D+00  E= 4.060639D-01

 Vector  157  Occ=0.000000D+00  E= 4.095448D-01

 Vector  158  Occ=0.000000D+00  E= 4.112094D-01

 Vector  159  Occ=0.000000D+00  E= 4.242397D-01

 Vector  160  Occ=0.000000D+00  E= 4.245094D-01

 Vector  161  Occ=0.000000D+00  E= 4.261653D-01

 Vector  162  Occ=0.000000D+00  E= 4.275337D-01

 Vector  163  Occ=0.000000D+00  E= 4.333236D-01

 Vector  164  Occ=0.000000D+00  E= 4.358322D-01

 Vector  165  Occ=0.000000D+00  E= 4.395383D-01

 Vector  166  Occ=0.000000D+00  E= 4.497477D-01

 Vector  167  Occ=0.000000D+00  E= 4.533518D-01

 Vector  168  Occ=0.000000D+00  E= 4.557372D-01

 Vector  169  Occ=0.000000D+00  E= 4.591718D-01

 Vector  170  Occ=0.000000D+00  E= 4.616947D-01

 Vector  171  Occ=0.000000D+00  E= 4.658768D-01

 Vector  172  Occ=0.000000D+00  E= 4.746077D-01

 Vector  173  Occ=0.000000D+00  E= 4.792861D-01

 Vector  174  Occ=0.000000D+00  E= 4.799266D-01

 Vector  175  Occ=0.000000D+00  E= 4.837845D-01

 Vector  176  Occ=0.000000D+00  E= 4.889500D-01

 Vector  177  Occ=0.000000D+00  E= 4.972141D-01

 Vector  178  Occ=0.000000D+00  E= 5.010237D-01

       Multipole analysis of the density wrt the origin
       ------------------------------------------------

     L   x y z        total         open         nuclear
     -   - - -        -----         ----         -------
     0   0 0 0      0.000000      0.000000    130.000000

     1   1 0 0     -1.338683      0.000000      0.000000
     1   0 1 0     -1.498593      0.000000     -0.000000
     1   0 0 1     -0.082076      0.000000      0.000000

     2   2 0 0    -72.348849      0.000000    926.816673
     2   1 1 0      1.405432      0.000000     -2.056946
     2   1 0 1     10.686672      0.000000     18.746466
     2   0 2 0    -72.839816      0.000000   4782.330170
     2   0 1 1     14.730516      0.000000     32.301934

 Total times  cpu:     3887.0s     wall:     4354.7s
