 Output coordinates in angstroms (scale by  1.889725989 to convert to a.u.)

  No.       Tag          Charge          X              Y              Z
 ---- ---------------- ---------- -------------- -------------- --------------
    1 H                    1.0000    -2.70580851     3.59823502     0.14096162
    2 C                    6.0000    -2.69719060     2.51025177     0.17743341
    3 H                    1.0000    -3.50608521     2.12012907    -0.43981028
    4 H                    1.0000    -2.82849321     2.16985653     1.20275273
    5 C                    6.0000    -1.38188449     1.99929404    -0.35954706
    6 O                    8.0000    -1.35990386     1.24678673    -1.32447845
    7 N                    7.0000    -0.28025518     2.38365863     0.28419647
    8 H                    1.0000    -0.38146332     3.00276641     1.07141020
    9 C                    6.0000     1.08199718     2.04407987    -0.14900878
   10 H                    1.0000     1.20834106     2.38608101    -1.17712669
   11 C                    6.0000     2.06373795     2.82194042     0.73750349
   12 H                    1.0000     1.97117416     2.49821340     1.77556937
   13 H                    1.0000     3.08510742     2.63483690     0.39906193
   14 H                    1.0000     1.86419319     3.89159131     0.66791281
   15 C                    6.0000     1.40702782     0.53112001    -0.14665240
   16 O                    8.0000     2.40215610     0.11947839    -0.73502804
   17 N                    7.0000     0.57675469    -0.29902999     0.49186660
   18 H                    1.0000    -0.23406830     0.09255956     0.94620315
   19 C                    6.0000     0.65761243    -1.76636435     0.45315104
   20 H                    1.0000     1.70750854    -2.06061863     0.45683511
   21 C                    6.0000     0.00111330    -2.32640342     1.72022686
   22 H                    1.0000     0.08261696    -3.41463177     1.73210989
   23 H                    1.0000     0.52147240    -1.93040548     2.59374334
   24 O                    8.0000    -1.36245045    -1.94641850     1.78088463
   25 H                    1.0000    -1.86498866    -2.55909572     1.23312650
   26 C                    6.0000     0.01903810    -2.39515285    -0.79899945
   27 O                    8.0000    -0.05352492    -3.61337718    -0.90352735
   28 N                    7.0000    -0.50072298    -1.61736604    -1.74218665
   29 H                    1.0000    -0.91040239    -2.05313517    -2.55056283
   30 H                    1.0000    -0.49846497    -0.61156915    -1.63677075

         Total SCF energy =   -774.654379369366

 Vector   81  Occ=0.000000D+00  E= 1.481030D-01

 Vector   82  Occ=0.000000D+00  E= 1.486264D-01

 Vector   83  Occ=0.000000D+00  E= 1.528340D-01

 Vector   84  Occ=0.000000D+00  E= 1.530428D-01

 Vector   85  Occ=0.000000D+00  E= 1.591731D-01

 Vector   86  Occ=0.000000D+00  E= 1.617882D-01

 Vector   87  Occ=0.000000D+00  E= 1.665462D-01

 Vector   88  Occ=0.000000D+00  E= 1.699397D-01

 Vector   89  Occ=0.000000D+00  E= 1.707946D-01

 Vector   90  Occ=0.000000D+00  E= 1.735200D-01

 Vector   91  Occ=0.000000D+00  E= 1.787354D-01

 Vector   92  Occ=0.000000D+00  E= 1.810070D-01

 Vector   93  Occ=0.000000D+00  E= 1.856978D-01

 Vector   94  Occ=0.000000D+00  E= 1.898133D-01

 Vector   95  Occ=0.000000D+00  E= 1.920913D-01

 Vector   96  Occ=0.000000D+00  E= 1.932428D-01

 Vector   97  Occ=0.000000D+00  E= 1.986943D-01

 Vector   98  Occ=0.000000D+00  E= 2.018889D-01

 Vector   99  Occ=0.000000D+00  E= 2.041126D-01

 Vector  100  Occ=0.000000D+00  E= 2.127685D-01

 Vector  101  Occ=0.000000D+00  E= 2.149089D-01

 Vector  102  Occ=0.000000D+00  E= 2.168104D-01

 Vector  103  Occ=0.000000D+00  E= 2.217214D-01

 Vector  104  Occ=0.000000D+00  E= 2.298375D-01

 Vector  105  Occ=0.000000D+00  E= 2.339397D-01

 Vector  106  Occ=0.000000D+00  E= 2.447999D-01

 Vector  107  Occ=0.000000D+00  E= 2.539359D-01

 Vector  108  Occ=0.000000D+00  E= 2.554397D-01

 Vector  109  Occ=0.000000D+00  E= 2.565094D-01

 Vector  110  Occ=0.000000D+00  E= 2.666988D-01

 Vector  111  Occ=0.000000D+00  E= 2.692144D-01

 Vector  112  Occ=0.000000D+00  E= 2.770588D-01

 Vector  113  Occ=0.000000D+00  E= 2.804295D-01

 Vector  114  Occ=0.000000D+00  E= 2.850115D-01

 Vector  115  Occ=0.000000D+00  E= 3.014019D-01

 Vector  116  Occ=0.000000D+00  E= 3.029151D-01

 Vector  117  Occ=0.000000D+00  E= 3.093283D-01

 Vector  118  Occ=0.000000D+00  E= 3.132206D-01

 Vector  119  Occ=0.000000D+00  E= 3.199662D-01

 Vector  120  Occ=0.000000D+00  E= 3.257308D-01

 Vector  121  Occ=0.000000D+00  E= 3.320920D-01

 Vector  122  Occ=0.000000D+00  E= 3.347520D-01

 Vector  123  Occ=0.000000D+00  E= 3.415133D-01

 Vector  124  Occ=0.000000D+00  E= 3.460869D-01

 Vector  125  Occ=0.000000D+00  E= 3.519735D-01

 Vector  126  Occ=0.000000D+00  E= 3.536693D-01

 Vector  127  Occ=0.000000D+00  E= 3.577450D-01

 Vector  128  Occ=0.000000D+00  E= 3.620363D-01

 Vector  129  Occ=0.000000D+00  E= 3.665055D-01

 Vector  130  Occ=0.000000D+00  E= 3.689564D-01

 Vector  131  Occ=0.000000D+00  E= 3.727056D-01

 Vector  132  Occ=0.000000D+00  E= 3.789228D-01

 Vector  133  Occ=0.000000D+00  E= 3.820003D-01

 Vector  134  Occ=0.000000D+00  E= 3.861322D-01

 Vector  135  Occ=0.000000D+00  E= 3.891694D-01

 Vector  136  Occ=0.000000D+00  E= 3.919534D-01

 Vector  137  Occ=0.000000D+00  E= 3.956726D-01

 Vector  138  Occ=0.000000D+00  E= 4.019802D-01

 Vector  139  Occ=0.000000D+00  E= 4.067699D-01

 Vector  140  Occ=0.000000D+00  E= 4.097160D-01

 Vector  141  Occ=0.000000D+00  E= 4.126805D-01

 Vector  142  Occ=0.000000D+00  E= 4.163818D-01

 Vector  143  Occ=0.000000D+00  E= 4.198737D-01

 Vector  144  Occ=0.000000D+00  E= 4.227642D-01

 Vector  145  Occ=0.000000D+00  E= 4.296175D-01

 Vector  146  Occ=0.000000D+00  E= 4.308713D-01

 Vector  147  Occ=0.000000D+00  E= 4.388470D-01

 Vector  148  Occ=0.000000D+00  E= 4.460908D-01

 Vector  149  Occ=0.000000D+00  E= 4.510166D-01

 Vector  150  Occ=0.000000D+00  E= 4.531091D-01

 Vector  151  Occ=0.000000D+00  E= 4.565101D-01

 Vector  152  Occ=0.000000D+00  E= 4.625232D-01

 Vector  153  Occ=0.000000D+00  E= 4.667264D-01

 Vector  154  Occ=0.000000D+00  E= 4.733732D-01

 Vector  155  Occ=0.000000D+00  E= 4.778854D-01

 Vector  156  Occ=0.000000D+00  E= 4.807887D-01

 Vector  157  Occ=0.000000D+00  E= 4.829801D-01

 Vector  158  Occ=0.000000D+00  E= 4.886387D-01

 Vector  159  Occ=0.000000D+00  E= 4.941744D-01

 Vector  160  Occ=0.000000D+00  E= 5.037814D-01

       Multipole analysis of the density wrt the origin
       ------------------------------------------------

     L   x y z        total         open         nuclear
     -   - - -        -----         ----         -------
     0   0 0 0      0.000000      0.000000    116.000000

     1   1 0 0     -0.981503      0.000000      0.000000
     1   0 1 0      2.658356      0.000000      0.000000
     1   0 0 1      1.610129      0.000000      0.000000

     2   2 0 0    -69.388572      0.000000    844.655224
     2   1 1 0      0.182978      0.000000      1.334039
     2   1 0 1      3.958861      0.000000      8.340186
     2   0 2 0    -65.886024      0.000000   1871.005589
     2   0 1 1      0.146603      0.000000      3.988382

 Total times  cpu:     3273.9s     wall:     3336.7s
