 Output coordinates in angstroms (scale by  1.889725989 to convert to a.u.)

  No.       Tag          Charge          X              Y              Z
 ---- ---------------- ---------- -------------- -------------- --------------
    1 H                    1.0000     3.65832461    -3.04080703    -0.51677573
    2 C                    6.0000     2.83176347    -3.41279759     0.08865032
    3 H                    1.0000     2.98984779    -3.13461858     1.12939563
    4 H                    1.0000     2.77286656    -4.49564573    -0.00404834
    5 C                    6.0000     1.54613110    -2.79519399    -0.40729142
    6 O                    8.0000     1.56181740    -2.00925209    -1.34478716
    7 N                    7.0000     0.43021285    -3.14281615     0.23129553
    8 H                    1.0000     0.50984927    -3.78649919     1.00075260
    9 C                    6.0000    -0.91538849    -2.66180213    -0.10466806
   10 H                    1.0000    -1.01893627    -2.68580922    -1.19155882
   11 C                    6.0000    -1.93306147    -3.65209740     0.48005664
   12 H                    1.0000    -2.94222745    -3.35287505     0.18920445
   13 H                    1.0000    -1.74171569    -4.65506926     0.09852521
   14 H                    1.0000    -1.86819876    -3.65790837     1.56983693
   15 C                    6.0000    -1.16422215    -1.19534322     0.32924561
   16 O                    8.0000    -2.06297611    -0.90956619     1.12036495
   17 N                    7.0000    -0.34469787    -0.26108753    -0.16528678
   18 H                    1.0000     0.37840100    -0.57676724    -0.80512452
   19 C                    6.0000    -0.39622937     1.17279477     0.14551873
   20 H                    1.0000    -0.59949613     1.26927287     1.21365336
   21 C                    6.0000     0.99926806     1.78121571    -0.12724656
   22 H                    1.0000     1.75012008     1.01495050     0.07736254
   23 H                    1.0000     1.09039019     2.04607570    -1.18151168
   24 C                    6.0000     1.35624560     2.99704323     0.75189818
   25 H                    1.0000     1.30190015     2.69640612     1.79851649
   26 C                    6.0000     2.79238029     3.43234798     0.45769938
   27 H                    1.0000     3.07205168     4.25681007     1.11281095
   28 H                    1.0000     3.47479375     2.60022806     0.63316539
   29 H                    1.0000     2.87775574     3.75405840    -0.58104141
   30 C                    6.0000     0.44913416     4.21154767     0.55272789
   31 H                    1.0000     0.81325002     5.04973764     1.14695698
   32 H                    1.0000     0.43382189     4.49438430    -0.50028919
   33 H                    1.0000    -0.56424900     3.98020306     0.87560439
   34 C                    6.0000    -1.55845212     1.86827844    -0.60121129
   35 O                    8.0000    -1.37133291     2.66767618    -1.51028701
   36 N                    7.0000    -2.79384298     1.54074529    -0.25118063
   37 H                    1.0000    -2.93338980     0.82988874     0.45490906
   38 H                    1.0000    -3.56234527     1.96926878    -0.73874380

         Total SCF energy =   -816.894542271963

 Vector  110  Occ=0.000000D+00  E= 1.906229D-01

 Vector  111  Occ=0.000000D+00  E= 1.979496D-01

 Vector  112  Occ=0.000000D+00  E= 1.981601D-01

 Vector  113  Occ=0.000000D+00  E= 2.032166D-01

 Vector  114  Occ=0.000000D+00  E= 2.069658D-01

 Vector  115  Occ=0.000000D+00  E= 2.095373D-01

 Vector  116  Occ=0.000000D+00  E= 2.101113D-01

 Vector  117  Occ=0.000000D+00  E= 2.130534D-01

 Vector  118  Occ=0.000000D+00  E= 2.151473D-01

 Vector  119  Occ=0.000000D+00  E= 2.180596D-01

 Vector  120  Occ=0.000000D+00  E= 2.240179D-01

 Vector  121  Occ=0.000000D+00  E= 2.243553D-01

 Vector  122  Occ=0.000000D+00  E= 2.324813D-01

 Vector  123  Occ=0.000000D+00  E= 2.356512D-01

 Vector  124  Occ=0.000000D+00  E= 2.369367D-01

 Vector  125  Occ=0.000000D+00  E= 2.412451D-01

 Vector  126  Occ=0.000000D+00  E= 2.446229D-01

 Vector  127  Occ=0.000000D+00  E= 2.452570D-01

 Vector  128  Occ=0.000000D+00  E= 2.577061D-01

 Vector  129  Occ=0.000000D+00  E= 2.595539D-01

 Vector  130  Occ=0.000000D+00  E= 2.616443D-01

 Vector  131  Occ=0.000000D+00  E= 2.666753D-01

 Vector  132  Occ=0.000000D+00  E= 2.803128D-01

 Vector  133  Occ=0.000000D+00  E= 2.836857D-01

 Vector  134  Occ=0.000000D+00  E= 2.866609D-01

 Vector  135  Occ=0.000000D+00  E= 2.973670D-01

 Vector  136  Occ=0.000000D+00  E= 3.004246D-01

 Vector  137  Occ=0.000000D+00  E= 3.146626D-01

 Vector  138  Occ=0.000000D+00  E= 3.160237D-01

 Vector  139  Occ=0.000000D+00  E= 3.164155D-01

 Vector  140  Occ=0.000000D+00  E= 3.268613D-01

 Vector  141  Occ=0.000000D+00  E= 3.311487D-01

 Vector  142  Occ=0.000000D+00  E= 3.348780D-01

 Vector  143  Occ=0.000000D+00  E= 3.361974D-01

 Vector  144  Occ=0.000000D+00  E= 3.381471D-01

 Vector  145  Occ=0.000000D+00  E= 3.388566D-01

 Vector  146  Occ=0.000000D+00  E= 3.433828D-01

 Vector  147  Occ=0.000000D+00  E= 3.514217D-01

 Vector  148  Occ=0.000000D+00  E= 3.533756D-01

 Vector  149  Occ=0.000000D+00  E= 3.563906D-01

 Vector  150  Occ=0.000000D+00  E= 3.637016D-01

 Vector  151  Occ=0.000000D+00  E= 3.667153D-01

 Vector  152  Occ=0.000000D+00  E= 3.683021D-01

 Vector  153  Occ=0.000000D+00  E= 3.698705D-01

 Vector  154  Occ=0.000000D+00  E= 3.781347D-01

 Vector  155  Occ=0.000000D+00  E= 3.787389D-01

 Vector  156  Occ=0.000000D+00  E= 3.807343D-01

 Vector  157  Occ=0.000000D+00  E= 3.892780D-01

 Vector  158  Occ=0.000000D+00  E= 3.926352D-01

 Vector  159  Occ=0.000000D+00  E= 3.948340D-01

 Vector  160  Occ=0.000000D+00  E= 3.960700D-01

 Vector  161  Occ=0.000000D+00  E= 4.006796D-01

 Vector  162  Occ=0.000000D+00  E= 4.026061D-01

 Vector  163  Occ=0.000000D+00  E= 4.041380D-01

 Vector  164  Occ=0.000000D+00  E= 4.096549D-01

 Vector  165  Occ=0.000000D+00  E= 4.119067D-01

 Vector  166  Occ=0.000000D+00  E= 4.159762D-01

 Vector  167  Occ=0.000000D+00  E= 4.207145D-01

 Vector  168  Occ=0.000000D+00  E= 4.213622D-01

 Vector  169  Occ=0.000000D+00  E= 4.227092D-01

 Vector  170  Occ=0.000000D+00  E= 4.283515D-01

 Vector  171  Occ=0.000000D+00  E= 4.331911D-01

 Vector  172  Occ=0.000000D+00  E= 4.357348D-01

 Vector  173  Occ=0.000000D+00  E= 4.378029D-01

 Vector  174  Occ=0.000000D+00  E= 4.448574D-01

 Vector  175  Occ=0.000000D+00  E= 4.484700D-01

 Vector  176  Occ=0.000000D+00  E= 4.495898D-01

 Vector  177  Occ=0.000000D+00  E= 4.543126D-01

 Vector  178  Occ=0.000000D+00  E= 4.637657D-01

 Vector  179  Occ=0.000000D+00  E= 4.680970D-01

 Vector  180  Occ=0.000000D+00  E= 4.710812D-01

 Vector  181  Occ=0.000000D+00  E= 4.747909D-01

 Vector  182  Occ=0.000000D+00  E= 4.794626D-01

 Vector  183  Occ=0.000000D+00  E= 4.806769D-01

 Vector  184  Occ=0.000000D+00  E= 4.831971D-01

 Vector  185  Occ=0.000000D+00  E= 4.887555D-01

 Vector  186  Occ=0.000000D+00  E= 4.906995D-01

 Vector  187  Occ=0.000000D+00  E= 4.922172D-01

 Vector  188  Occ=0.000000D+00  E= 4.989554D-01

 Vector  189  Occ=0.000000D+00  E= 5.016879D-01

       Multipole analysis of the density wrt the origin
       ------------------------------------------------

     L   x y z        total         open         nuclear
     -   - - -        -----         ----         -------
     0   0 0 0     -0.000000      0.000000    132.000000

     1   1 0 0      0.571159      0.000000     -0.000000
     1   0 1 0     -2.368337      0.000000     -0.000000
     1   0 0 1      1.275698      0.000000     -0.000000

     2   2 0 0    -74.156735      0.000000   1461.069303
     2   1 1 0     -1.381408      0.000000     47.198872
     2   1 0 1      4.613368      0.000000      9.528322
     2   0 2 0    -69.696998      0.000000   3341.907370
     2   0 1 1      1.913564      0.000000      9.553808

 Total times  cpu:     5739.9s     wall:     6058.6s
