 Output coordinates in angstroms (scale by  1.889725989 to convert to a.u.)

  No.       Tag          Charge          X              Y              Z
 ---- ---------------- ---------- -------------- -------------- --------------
    1 H                    1.0000    -2.96337029    -2.66728570    -0.25366477
    2 C                    6.0000    -2.57446775    -2.64033637     0.76244229
    3 H                    1.0000    -3.07640076    -3.39387669     1.36677765
    4 H                    1.0000    -2.72970372    -1.65630911     1.19734015
    5 C                    6.0000    -1.09347302    -2.93997703     0.73937533
    6 O                    8.0000    -0.63728551    -3.82357394     1.45034260
    7 N                    7.0000    -0.34918572    -2.18733641    -0.06710995
    8 H                    1.0000    -0.81974149    -1.47145595    -0.60872922
    9 C                    6.0000     1.10002946    -2.34989275    -0.26095732
   10 H                    1.0000     1.51172122    -2.87458497     0.60315550
   11 C                    6.0000     1.32633855    -3.23435092    -1.49721940
   12 H                    1.0000     0.81071784    -4.18688967    -1.37012012
   13 H                    1.0000     0.94867397    -2.73225366    -2.38936110
   14 H                    1.0000     2.39269385    -3.42703649    -1.62120589
   15 C                    6.0000     1.84561709    -0.99802676    -0.34387556
   16 O                    8.0000     2.95321632    -0.90853217    -0.86585990
   17 N                    7.0000     1.20538923     0.07240152     0.13547149
   18 H                    1.0000     0.28401211    -0.09164017     0.51349732
   19 C                    6.0000     1.50878710     1.46404882    -0.22285312
   20 H                    1.0000     2.52225341     1.52315514    -0.62344330
   21 C                    6.0000     0.52785097     1.87628654    -1.33402834
   22 H                    1.0000     0.75137864     2.89361386    -1.65671163
   23 H                    1.0000     0.67217085     1.22162596    -2.19439704
   24 C                    6.0000    -0.92115694     1.79438381    -0.91068212
   25 N                    7.0000    -1.65719700     0.61547639    -0.73679039
   26 C                    6.0000    -2.87580904     1.00561279    -0.33217416
   27 H                    1.0000    -3.69833198     0.33367889    -0.12245568
   28 N                    7.0000    -2.93115758     2.34375101    -0.22173574
   29 H                    1.0000    -3.73877686     2.87684578     0.07220144
   30 C                    6.0000    -1.70537877     2.85862194    -0.57610875
   31 H                    1.0000    -1.39911934     3.89660452    -0.57668055
   32 C                    6.0000     1.46043307     2.42986316     0.97616419
   33 O                    8.0000     1.33029393     3.63735622     0.81249277
   34 N                    7.0000     1.53400500     1.92901222     2.20133459
   35 H                    1.0000     1.65623461     0.93786858     2.32923770
   36 H                    1.0000     1.50018824     2.56540631     2.98006753

         Total SCF energy =   -923.470408276244

 Vector  116  Occ=0.000000D+00  E= 1.992117D-01

 Vector  117  Occ=0.000000D+00  E= 2.008241D-01

 Vector  118  Occ=0.000000D+00  E= 2.027884D-01

 Vector  119  Occ=0.000000D+00  E= 2.066229D-01

 Vector  120  Occ=0.000000D+00  E= 2.095738D-01

 Vector  121  Occ=0.000000D+00  E= 2.124630D-01

 Vector  122  Occ=0.000000D+00  E= 2.140666D-01

 Vector  123  Occ=0.000000D+00  E= 2.159664D-01

 Vector  124  Occ=0.000000D+00  E= 2.215470D-01

 Vector  125  Occ=0.000000D+00  E= 2.239448D-01

 Vector  126  Occ=0.000000D+00  E= 2.291162D-01

 Vector  127  Occ=0.000000D+00  E= 2.351116D-01

 Vector  128  Occ=0.000000D+00  E= 2.373030D-01

 Vector  129  Occ=0.000000D+00  E= 2.406052D-01

 Vector  130  Occ=0.000000D+00  E= 2.431775D-01

 Vector  131  Occ=0.000000D+00  E= 2.501317D-01

 Vector  132  Occ=0.000000D+00  E= 2.556551D-01

 Vector  133  Occ=0.000000D+00  E= 2.559844D-01

 Vector  134  Occ=0.000000D+00  E= 2.657269D-01

 Vector  135  Occ=0.000000D+00  E= 2.748462D-01

 Vector  136  Occ=0.000000D+00  E= 2.754176D-01

 Vector  137  Occ=0.000000D+00  E= 2.783710D-01

 Vector  138  Occ=0.000000D+00  E= 2.818386D-01

 Vector  139  Occ=0.000000D+00  E= 2.877988D-01

 Vector  140  Occ=0.000000D+00  E= 2.928771D-01

 Vector  141  Occ=0.000000D+00  E= 2.961258D-01

 Vector  142  Occ=0.000000D+00  E= 2.993732D-01

 Vector  143  Occ=0.000000D+00  E= 3.004532D-01

 Vector  144  Occ=0.000000D+00  E= 3.052958D-01

 Vector  145  Occ=0.000000D+00  E= 3.064901D-01

 Vector  146  Occ=0.000000D+00  E= 3.220947D-01

 Vector  147  Occ=0.000000D+00  E= 3.247116D-01

 Vector  148  Occ=0.000000D+00  E= 3.275027D-01

 Vector  149  Occ=0.000000D+00  E= 3.366213D-01

 Vector  150  Occ=0.000000D+00  E= 3.384474D-01

 Vector  151  Occ=0.000000D+00  E= 3.407307D-01

 Vector  152  Occ=0.000000D+00  E= 3.445508D-01

 Vector  153  Occ=0.000000D+00  E= 3.473253D-01

 Vector  154  Occ=0.000000D+00  E= 3.512375D-01

 Vector  155  Occ=0.000000D+00  E= 3.535029D-01

 Vector  156  Occ=0.000000D+00  E= 3.605713D-01

 Vector  157  Occ=0.000000D+00  E= 3.633258D-01

 Vector  158  Occ=0.000000D+00  E= 3.649490D-01

 Vector  159  Occ=0.000000D+00  E= 3.701165D-01

 Vector  160  Occ=0.000000D+00  E= 3.778095D-01

 Vector  161  Occ=0.000000D+00  E= 3.785119D-01

 Vector  162  Occ=0.000000D+00  E= 3.795604D-01

 Vector  163  Occ=0.000000D+00  E= 3.833813D-01

 Vector  164  Occ=0.000000D+00  E= 3.867780D-01

 Vector  165  Occ=0.000000D+00  E= 3.904666D-01

 Vector  166  Occ=0.000000D+00  E= 3.940643D-01

 Vector  167  Occ=0.000000D+00  E= 3.996515D-01

 Vector  168  Occ=0.000000D+00  E= 4.023653D-01

 Vector  169  Occ=0.000000D+00  E= 4.041017D-01

 Vector  170  Occ=0.000000D+00  E= 4.098912D-01

 Vector  171  Occ=0.000000D+00  E= 4.114619D-01

 Vector  172  Occ=0.000000D+00  E= 4.120991D-01

 Vector  173  Occ=0.000000D+00  E= 4.157006D-01

 Vector  174  Occ=0.000000D+00  E= 4.173448D-01

 Vector  175  Occ=0.000000D+00  E= 4.259128D-01

 Vector  176  Occ=0.000000D+00  E= 4.295489D-01

 Vector  177  Occ=0.000000D+00  E= 4.312638D-01

 Vector  178  Occ=0.000000D+00  E= 4.348889D-01

 Vector  179  Occ=0.000000D+00  E= 4.396201D-01

 Vector  180  Occ=0.000000D+00  E= 4.428615D-01

 Vector  181  Occ=0.000000D+00  E= 4.446048D-01

 Vector  182  Occ=0.000000D+00  E= 4.474158D-01

 Vector  183  Occ=0.000000D+00  E= 4.516501D-01

 Vector  184  Occ=0.000000D+00  E= 4.549663D-01

 Vector  185  Occ=0.000000D+00  E= 4.658594D-01

 Vector  186  Occ=0.000000D+00  E= 4.684818D-01

 Vector  187  Occ=0.000000D+00  E= 4.702006D-01

 Vector  188  Occ=0.000000D+00  E= 4.751813D-01

 Vector  189  Occ=0.000000D+00  E= 4.793123D-01

 Vector  190  Occ=0.000000D+00  E= 4.828010D-01

 Vector  191  Occ=0.000000D+00  E= 4.845560D-01

 Vector  192  Occ=0.000000D+00  E= 4.915857D-01

 Vector  193  Occ=0.000000D+00  E= 4.959426D-01

 Vector  194  Occ=0.000000D+00  E= 4.982196D-01

 Vector  195  Occ=0.000000D+00  E= 5.019723D-01

       Multipole analysis of the density wrt the origin
       ------------------------------------------------

     L   x y z        total         open         nuclear
     -   - - -        -----         ----         -------
     0   0 0 0      0.000000      0.000000    142.000000

     1   1 0 0     -2.671430      0.000000      0.000000
     1   0 1 0      1.393006      0.000000      0.000000
     1   0 0 1      0.205762      0.000000      0.000000

     2   2 0 0    -77.562883      0.000000   1633.863626
     2   1 1 0     -7.777588      0.000000      0.837369
     2   1 0 1      3.169642      0.000000    -13.070321
     2   0 2 0   -100.495252      0.000000   2789.867387
     2   0 1 1      6.621000      0.000000     18.336387

 Total times  cpu:     5786.0s     wall:     5916.7s
