 Output coordinates in angstroms (scale by  1.889725989 to convert to a.u.)

  No.       Tag          Charge          X              Y              Z
 ---- ---------------- ---------- -------------- -------------- --------------
    1 H                    1.0000     0.56641205    -4.66541204     1.43070214
    2 C                    6.0000     0.51614788    -4.74662109     0.34622411
    3 H                    1.0000    -0.21635750    -5.49848429     0.06209283
    4 H                    1.0000     1.49536989    -5.02329340    -0.04283078
    5 C                    6.0000     0.11745721    -3.41031989    -0.23410843
    6 O                    8.0000     0.87030906    -2.81792528    -0.99839157
    7 N                    7.0000    -1.06862159    -2.92514150     0.13104086
    8 H                    1.0000    -1.61653888    -3.43944196     0.80057628
    9 C                    6.0000    -1.54484816    -1.60845331    -0.28918699
   10 H                    1.0000    -1.54996440    -1.57931241    -1.37954318
   11 C                    6.0000    -2.98388939    -1.41580294     0.20284166
   12 H                    1.0000    -3.01237234    -1.44795813     1.29310253
   13 H                    1.0000    -3.35711742    -0.44581001    -0.12954148
   14 H                    1.0000    -3.62571629    -2.19995682    -0.20077068
   15 C                    6.0000    -0.60624260    -0.49809267     0.22140468
   16 O                    8.0000    -0.33663780    -0.41597724     1.41710711
   17 N                    7.0000    -0.11221407     0.34276399    -0.69693398
   18 H                    1.0000    -0.37535120     0.18070970    -1.65501918
   19 C                    6.0000     0.91084068     1.37819640    -0.45455883
   20 H                    1.0000     1.15285829     1.80618866    -1.42688342
   21 C                    6.0000     0.34584344     2.53146346     0.40736125
   22 H                    1.0000     0.21659790     2.16565417     1.42703284
   23 H                    1.0000     1.08961278     3.32847550     0.44442836
   24 C                    6.0000    -0.98903356     3.13814982    -0.06423608
   25 H                    1.0000    -1.76187728     2.36804902    -0.07238147
   26 C                    6.0000    -1.42789101     4.23790610     0.90367623
   27 H                    1.0000    -1.53288960     3.82003333     1.90505910
   28 H                    1.0000    -0.68628573     5.03666518     0.92442572
   29 H                    1.0000    -2.38898541     4.64453398     0.59200440
   30 C                    6.0000    -0.88934774     3.74993546    -1.46431253
   31 H                    1.0000    -0.10084574     4.50203195    -1.48591042
   32 H                    1.0000    -0.67185109     2.97501223    -2.19723149
   33 H                    1.0000    -1.83794910     4.21786692    -1.72922118
   34 C                    6.0000     2.26858535     0.84931722     0.07087262
   35 O                    8.0000     3.12052449     1.62640085     0.48195865
   36 N                    7.0000     2.52671486    -0.45264892     0.03482650
   37 H                    1.0000     3.41469157    -0.76870252     0.38507426
   38 H                    1.0000     1.83810651    -1.10572200    -0.30895846

         Total SCF energy =   -816.892749483533

 Vector  111  Occ=0.000000D+00  E= 1.946827D-01

 Vector  112  Occ=0.000000D+00  E= 1.965638D-01

 Vector  113  Occ=0.000000D+00  E= 1.981067D-01

 Vector  114  Occ=0.000000D+00  E= 2.006687D-01

 Vector  115  Occ=0.000000D+00  E= 2.093033D-01

 Vector  116  Occ=0.000000D+00  E= 2.133740D-01

 Vector  117  Occ=0.000000D+00  E= 2.158157D-01

 Vector  118  Occ=0.000000D+00  E= 2.182239D-01

 Vector  119  Occ=0.000000D+00  E= 2.232929D-01

 Vector  120  Occ=0.000000D+00  E= 2.249699D-01

 Vector  121  Occ=0.000000D+00  E= 2.269482D-01

 Vector  122  Occ=0.000000D+00  E= 2.311477D-01

 Vector  123  Occ=0.000000D+00  E= 2.357962D-01

 Vector  124  Occ=0.000000D+00  E= 2.367563D-01

 Vector  125  Occ=0.000000D+00  E= 2.422319D-01

 Vector  126  Occ=0.000000D+00  E= 2.490595D-01

 Vector  127  Occ=0.000000D+00  E= 2.526647D-01

 Vector  128  Occ=0.000000D+00  E= 2.558771D-01

 Vector  129  Occ=0.000000D+00  E= 2.644323D-01

 Vector  130  Occ=0.000000D+00  E= 2.677228D-01

 Vector  131  Occ=0.000000D+00  E= 2.755826D-01

 Vector  132  Occ=0.000000D+00  E= 2.795804D-01

 Vector  133  Occ=0.000000D+00  E= 2.844548D-01

 Vector  134  Occ=0.000000D+00  E= 2.892456D-01

 Vector  135  Occ=0.000000D+00  E= 2.963780D-01

 Vector  136  Occ=0.000000D+00  E= 3.059247D-01

 Vector  137  Occ=0.000000D+00  E= 3.074320D-01

 Vector  138  Occ=0.000000D+00  E= 3.126713D-01

 Vector  139  Occ=0.000000D+00  E= 3.144300D-01

 Vector  140  Occ=0.000000D+00  E= 3.199617D-01

 Vector  141  Occ=0.000000D+00  E= 3.228419D-01

 Vector  142  Occ=0.000000D+00  E= 3.321531D-01

 Vector  143  Occ=0.000000D+00  E= 3.353260D-01

 Vector  144  Occ=0.000000D+00  E= 3.354536D-01

 Vector  145  Occ=0.000000D+00  E= 3.423376D-01

 Vector  146  Occ=0.000000D+00  E= 3.462498D-01

 Vector  147  Occ=0.000000D+00  E= 3.484178D-01

 Vector  148  Occ=0.000000D+00  E= 3.528741D-01

 Vector  149  Occ=0.000000D+00  E= 3.586091D-01

 Vector  150  Occ=0.000000D+00  E= 3.613285D-01

 Vector  151  Occ=0.000000D+00  E= 3.671913D-01

 Vector  152  Occ=0.000000D+00  E= 3.711515D-01

 Vector  153  Occ=0.000000D+00  E= 3.750786D-01

 Vector  154  Occ=0.000000D+00  E= 3.794769D-01

 Vector  155  Occ=0.000000D+00  E= 3.814128D-01

 Vector  156  Occ=0.000000D+00  E= 3.848733D-01

 Vector  157  Occ=0.000000D+00  E= 3.871915D-01

 Vector  158  Occ=0.000000D+00  E= 3.889361D-01

 Vector  159  Occ=0.000000D+00  E= 3.950438D-01

 Vector  160  Occ=0.000000D+00  E= 3.973633D-01

 Vector  161  Occ=0.000000D+00  E= 3.979221D-01

 Vector  162  Occ=0.000000D+00  E= 4.035800D-01

 Vector  163  Occ=0.000000D+00  E= 4.043652D-01

 Vector  164  Occ=0.000000D+00  E= 4.084561D-01

 Vector  165  Occ=0.000000D+00  E= 4.130440D-01

 Vector  166  Occ=0.000000D+00  E= 4.162610D-01

 Vector  167  Occ=0.000000D+00  E= 4.176279D-01

 Vector  168  Occ=0.000000D+00  E= 4.191802D-01

 Vector  169  Occ=0.000000D+00  E= 4.261041D-01

 Vector  170  Occ=0.000000D+00  E= 4.287827D-01

 Vector  171  Occ=0.000000D+00  E= 4.334621D-01

 Vector  172  Occ=0.000000D+00  E= 4.392535D-01

 Vector  173  Occ=0.000000D+00  E= 4.412162D-01

 Vector  174  Occ=0.000000D+00  E= 4.429255D-01

 Vector  175  Occ=0.000000D+00  E= 4.469726D-01

 Vector  176  Occ=0.000000D+00  E= 4.536808D-01

 Vector  177  Occ=0.000000D+00  E= 4.622947D-01

 Vector  178  Occ=0.000000D+00  E= 4.652247D-01

 Vector  179  Occ=0.000000D+00  E= 4.671150D-01

 Vector  180  Occ=0.000000D+00  E= 4.726207D-01

 Vector  181  Occ=0.000000D+00  E= 4.745818D-01

 Vector  182  Occ=0.000000D+00  E= 4.779346D-01

 Vector  183  Occ=0.000000D+00  E= 4.802674D-01

 Vector  184  Occ=0.000000D+00  E= 4.810128D-01

 Vector  185  Occ=0.000000D+00  E= 4.845643D-01

 Vector  186  Occ=0.000000D+00  E= 4.888209D-01

 Vector  187  Occ=0.000000D+00  E= 4.951324D-01

 Vector  188  Occ=0.000000D+00  E= 4.953513D-01

 Vector  189  Occ=0.000000D+00  E= 4.977075D-01

 Vector  190  Occ=0.000000D+00  E= 5.024109D-01

       Multipole analysis of the density wrt the origin
       ------------------------------------------------

     L   x y z        total         open         nuclear
     -   - - -        -----         ----         -------
     0   0 0 0     -0.000000      0.000000    132.000000

     1   1 0 0     -2.452083      0.000000     -0.000000
     1   0 1 0     -1.860280      0.000000     -0.000000
     1   0 0 1     -0.873727      0.000000      0.000000

     2   2 0 0    -82.344377      0.000000   1224.923052
     2   1 1 0     -2.321224      0.000000    -37.051550
     2   1 0 1     -0.138978      0.000000     -1.069399
     2   0 2 0    -67.262444      0.000000   3289.799644
     2   0 1 1     -7.204514      0.000000    -23.118758

 Total times  cpu:     5645.5s     wall:     5816.0s
