 Output coordinates in angstroms (scale by  1.889725989 to convert to a.u.)

  No.       Tag          Charge          X              Y              Z
 ---- ---------------- ---------- -------------- -------------- --------------
    1 H                    1.0000    -2.91773928    -3.00919343     1.10858478
    2 C                    6.0000    -2.14408626    -3.26950652     0.38681466
    3 H                    1.0000    -2.47386770    -2.99725205    -0.61470754
    4 H                    1.0000    -1.94528599    -4.33833788     0.43612983
    5 C                    6.0000    -0.88377574    -2.50855484     0.72459997
    6 O                    8.0000    -0.86626011    -1.73789218     1.67480061
    7 N                    7.0000     0.16755289    -2.70740501    -0.06813184
    8 H                    1.0000     0.06243485    -3.34986331    -0.83564571
    9 C                    6.0000     1.47894117    -2.06564386     0.09429475
   10 H                    1.0000     1.72976326    -2.08354306     1.15699551
   11 C                    6.0000     2.52075787    -2.92231462    -0.64302415
   12 H                    1.0000     2.49741785    -3.94540221    -0.26632663
   13 H                    1.0000     2.31492323    -2.92264495    -1.71425802
   14 H                    1.0000     3.51667551    -2.50993009    -0.47553372
   15 C                    6.0000     1.49171314    -0.57628216    -0.33424649
   16 O                    8.0000     2.30870472    -0.15755393    -1.15233722
   17 N                    7.0000     0.56318252     0.22534076     0.19645925
   18 H                    1.0000    -0.05350820    -0.19234651     0.88634903
   19 C                    6.0000     0.32845508     1.63550058    -0.15128534
   20 H                    1.0000     0.44661314     1.73754209    -1.23043973
   21 C                    6.0000    -1.12659713     2.01283663     0.20453566
   22 H                    1.0000    -1.23601363     1.96604832     1.28931761
   23 H                    1.0000    -1.29929047     3.04664556    -0.09979492
   24 C                    6.0000    -2.22111673     1.13245110    -0.43305446
   25 H                    1.0000    -2.10102627     0.10075282    -0.10434190
   26 C                    6.0000    -3.59904261     1.61515963     0.01954552
   27 H                    1.0000    -3.66185700     1.57203147     1.10652910
   28 H                    1.0000    -3.76459328     2.64117659    -0.30946841
   29 H                    1.0000    -4.37281046     0.97221115    -0.40037062
   30 C                    6.0000    -2.18379537     1.16385462    -1.96291686
   31 H                    1.0000    -1.25468117     0.72411386    -2.32272216
   32 H                    1.0000    -3.01533309     0.58455067    -2.36409757
   33 H                    1.0000    -2.25935582     2.19257615    -2.31629148
   34 C                    6.0000     1.36446276     2.60456704     0.46686130
   35 O                    8.0000     1.02498928     3.64026463     1.02570499
   36 N                    7.0000     2.64784997     2.27870254     0.40471157
   37 H                    1.0000     2.91932021     1.44073476    -0.09082745
   38 H                    1.0000     3.32314844     2.90270833     0.81155275

         Total SCF energy =   -816.895469866544

 Vector  109  Occ=0.000000D+00  E= 1.910637D-01

 Vector  110  Occ=0.000000D+00  E= 1.926692D-01

 Vector  111  Occ=0.000000D+00  E= 1.955712D-01

 Vector  112  Occ=0.000000D+00  E= 1.979728D-01

 Vector  113  Occ=0.000000D+00  E= 2.058811D-01

 Vector  114  Occ=0.000000D+00  E= 2.070601D-01

 Vector  115  Occ=0.000000D+00  E= 2.097542D-01

 Vector  116  Occ=0.000000D+00  E= 2.127501D-01

 Vector  117  Occ=0.000000D+00  E= 2.147782D-01

 Vector  118  Occ=0.000000D+00  E= 2.182238D-01

 Vector  119  Occ=0.000000D+00  E= 2.205353D-01

 Vector  120  Occ=0.000000D+00  E= 2.273962D-01

 Vector  121  Occ=0.000000D+00  E= 2.294865D-01

 Vector  122  Occ=0.000000D+00  E= 2.304086D-01

 Vector  123  Occ=0.000000D+00  E= 2.376199D-01

 Vector  124  Occ=0.000000D+00  E= 2.384313D-01

 Vector  125  Occ=0.000000D+00  E= 2.421435D-01

 Vector  126  Occ=0.000000D+00  E= 2.514699D-01

 Vector  127  Occ=0.000000D+00  E= 2.534086D-01

 Vector  128  Occ=0.000000D+00  E= 2.586113D-01

 Vector  129  Occ=0.000000D+00  E= 2.612495D-01

 Vector  130  Occ=0.000000D+00  E= 2.668340D-01

 Vector  131  Occ=0.000000D+00  E= 2.727434D-01

 Vector  132  Occ=0.000000D+00  E= 2.817607D-01

 Vector  133  Occ=0.000000D+00  E= 2.899726D-01

 Vector  134  Occ=0.000000D+00  E= 2.953433D-01

 Vector  135  Occ=0.000000D+00  E= 2.995702D-01

 Vector  136  Occ=0.000000D+00  E= 3.052297D-01

 Vector  137  Occ=0.000000D+00  E= 3.158577D-01

 Vector  138  Occ=0.000000D+00  E= 3.171282D-01

 Vector  139  Occ=0.000000D+00  E= 3.227042D-01

 Vector  140  Occ=0.000000D+00  E= 3.280023D-01

 Vector  141  Occ=0.000000D+00  E= 3.311914D-01

 Vector  142  Occ=0.000000D+00  E= 3.349366D-01

 Vector  143  Occ=0.000000D+00  E= 3.380971D-01

 Vector  144  Occ=0.000000D+00  E= 3.426217D-01

 Vector  145  Occ=0.000000D+00  E= 3.461609D-01

 Vector  146  Occ=0.000000D+00  E= 3.505482D-01

 Vector  147  Occ=0.000000D+00  E= 3.533153D-01

 Vector  148  Occ=0.000000D+00  E= 3.550762D-01

 Vector  149  Occ=0.000000D+00  E= 3.588710D-01

 Vector  150  Occ=0.000000D+00  E= 3.630813D-01

 Vector  151  Occ=0.000000D+00  E= 3.695814D-01

 Vector  152  Occ=0.000000D+00  E= 3.711508D-01

 Vector  153  Occ=0.000000D+00  E= 3.752347D-01

 Vector  154  Occ=0.000000D+00  E= 3.777133D-01

 Vector  155  Occ=0.000000D+00  E= 3.819941D-01

 Vector  156  Occ=0.000000D+00  E= 3.852538D-01

 Vector  157  Occ=0.000000D+00  E= 3.879276D-01

 Vector  158  Occ=0.000000D+00  E= 3.898796D-01

 Vector  159  Occ=0.000000D+00  E= 3.946239D-01

 Vector  160  Occ=0.000000D+00  E= 3.985640D-01

 Vector  161  Occ=0.000000D+00  E= 3.995571D-01

 Vector  162  Occ=0.000000D+00  E= 4.014409D-01

 Vector  163  Occ=0.000000D+00  E= 4.053696D-01

 Vector  164  Occ=0.000000D+00  E= 4.105015D-01

 Vector  165  Occ=0.000000D+00  E= 4.191334D-01

 Vector  166  Occ=0.000000D+00  E= 4.237067D-01

 Vector  167  Occ=0.000000D+00  E= 4.274730D-01

 Vector  168  Occ=0.000000D+00  E= 4.298627D-01

 Vector  169  Occ=0.000000D+00  E= 4.308580D-01

 Vector  170  Occ=0.000000D+00  E= 4.325124D-01

 Vector  171  Occ=0.000000D+00  E= 4.352535D-01

 Vector  172  Occ=0.000000D+00  E= 4.375694D-01

 Vector  173  Occ=0.000000D+00  E= 4.417856D-01

 Vector  174  Occ=0.000000D+00  E= 4.427084D-01

 Vector  175  Occ=0.000000D+00  E= 4.514880D-01

 Vector  176  Occ=0.000000D+00  E= 4.536295D-01

 Vector  177  Occ=0.000000D+00  E= 4.574046D-01

 Vector  178  Occ=0.000000D+00  E= 4.576937D-01

 Vector  179  Occ=0.000000D+00  E= 4.674805D-01

 Vector  180  Occ=0.000000D+00  E= 4.709401D-01

 Vector  181  Occ=0.000000D+00  E= 4.774960D-01

 Vector  182  Occ=0.000000D+00  E= 4.798396D-01

 Vector  183  Occ=0.000000D+00  E= 4.852738D-01

 Vector  184  Occ=0.000000D+00  E= 4.905723D-01

 Vector  185  Occ=0.000000D+00  E= 4.913952D-01

 Vector  186  Occ=0.000000D+00  E= 4.938543D-01

 Vector  187  Occ=0.000000D+00  E= 4.967567D-01

 Vector  188  Occ=0.000000D+00  E= 5.001969D-01

       Multipole analysis of the density wrt the origin
       ------------------------------------------------

     L   x y z        total         open         nuclear
     -   - - -        -----         ----         -------
     0   0 0 0     -0.000000      0.000000    132.000000

     1   1 0 0     -0.397158      0.000000     -0.000000
     1   0 1 0     -2.837388      0.000000      0.000000
     1   0 0 1     -0.880722      0.000000      0.000000

     2   2 0 0    -73.300482      0.000000   1771.344312
     2   1 1 0     -0.231205      0.000000    -42.257568
     2   1 0 1      5.033419      0.000000     14.424626
     2   0 2 0    -77.855947      0.000000   2275.700768
     2   0 1 1     -1.468104      0.000000     -1.899959

 Total times  cpu:     6611.2s     wall:     6998.2s
