 Output coordinates in angstroms (scale by  1.889725989 to convert to a.u.)

  No.       Tag          Charge          X              Y              Z
 ---- ---------------- ---------- -------------- -------------- --------------
    1 H                    1.0000    -1.17457437     4.91187103     0.42408646
    2 C                    6.0000    -0.80818709     4.63124559    -0.56115652
    3 H                    1.0000    -0.27590492     5.47041294    -1.00592933
    4 H                    1.0000    -1.63979339     4.34472530    -1.20092061
    5 C                    6.0000     0.14355500     3.46543765    -0.42603496
    6 O                    8.0000     1.30534381     3.57533040    -0.79600162
    7 N                    7.0000    -0.35525064     2.34897731     0.09861850
    8 H                    1.0000    -1.33309672     2.32430157     0.34500471
    9 C                    6.0000     0.39661995     1.10730216     0.28855384
   10 H                    1.0000     1.12643343     1.00978546    -0.51732753
   11 C                    6.0000     1.15202439     1.18247883     1.62411687
   12 H                    1.0000     1.74458912     0.27930145     1.76777152
   13 H                    1.0000     1.82311230     2.04323989     1.62006469
   14 H                    1.0000     0.44435688     1.28218043     2.44716746
   15 C                    6.0000    -0.53698954    -0.11624799     0.23491292
   16 O                    8.0000    -1.74951779     0.01042832     0.40346066
   17 N                    7.0000     0.02656767    -1.30644566     0.01568065
   18 H                    1.0000     1.02859752    -1.36253078    -0.10642029
   19 C                    6.0000    -0.71423468    -2.56713335    -0.05326429
   20 H                    1.0000    -1.26143570    -2.71575371     0.87793764
   21 H                    1.0000    -1.43537037    -2.51733107    -0.86975804
   22 C                    6.0000     0.20515386    -3.76941606    -0.27970855
   23 O                    8.0000     1.41940167    -3.63086313    -0.37274806
   24 N                    7.0000    -0.35347598    -4.96796290    -0.37254264
   25 H                    1.0000     0.25032924    -5.75980395    -0.52198161
   26 H                    1.0000    -1.35160316    -5.07354556    -0.29419437

         Total SCF energy =   -660.744414141385

 Vector   63  Occ=0.000000D+00  E= 1.046173D-01

 Vector   64  Occ=0.000000D+00  E= 1.063491D-01

 Vector   65  Occ=0.000000D+00  E= 1.142847D-01

 Vector   66  Occ=0.000000D+00  E= 1.220593D-01

 Vector   67  Occ=0.000000D+00  E= 1.257527D-01

 Vector   68  Occ=0.000000D+00  E= 1.314996D-01

 Vector   69  Occ=0.000000D+00  E= 1.330807D-01

 Vector   70  Occ=0.000000D+00  E= 1.430615D-01

 Vector   71  Occ=0.000000D+00  E= 1.493167D-01

 Vector   72  Occ=0.000000D+00  E= 1.524770D-01

 Vector   73  Occ=0.000000D+00  E= 1.541404D-01

 Vector   74  Occ=0.000000D+00  E= 1.572438D-01

 Vector   75  Occ=0.000000D+00  E= 1.596874D-01

 Vector   76  Occ=0.000000D+00  E= 1.648705D-01

 Vector   77  Occ=0.000000D+00  E= 1.694820D-01

 Vector   78  Occ=0.000000D+00  E= 1.740071D-01

 Vector   79  Occ=0.000000D+00  E= 1.769926D-01

 Vector   80  Occ=0.000000D+00  E= 1.797956D-01

 Vector   81  Occ=0.000000D+00  E= 1.826298D-01

 Vector   82  Occ=0.000000D+00  E= 1.862038D-01

 Vector   83  Occ=0.000000D+00  E= 1.872712D-01

 Vector   84  Occ=0.000000D+00  E= 1.897004D-01

 Vector   85  Occ=0.000000D+00  E= 1.933884D-01

 Vector   86  Occ=0.000000D+00  E= 2.005342D-01

 Vector   87  Occ=0.000000D+00  E= 2.032978D-01

 Vector   88  Occ=0.000000D+00  E= 2.111744D-01

 Vector   89  Occ=0.000000D+00  E= 2.163023D-01

 Vector   90  Occ=0.000000D+00  E= 2.179850D-01

 Vector   91  Occ=0.000000D+00  E= 2.213314D-01

 Vector   92  Occ=0.000000D+00  E= 2.308866D-01

 Vector   93  Occ=0.000000D+00  E= 2.402622D-01

 Vector   94  Occ=0.000000D+00  E= 2.433917D-01

 Vector   95  Occ=0.000000D+00  E= 2.489258D-01

 Vector   96  Occ=0.000000D+00  E= 2.574733D-01

 Vector   97  Occ=0.000000D+00  E= 2.601388D-01

 Vector   98  Occ=0.000000D+00  E= 2.792826D-01

 Vector   99  Occ=0.000000D+00  E= 2.819777D-01

 Vector  100  Occ=0.000000D+00  E= 2.863992D-01

 Vector  101  Occ=0.000000D+00  E= 2.897725D-01

 Vector  102  Occ=0.000000D+00  E= 2.972743D-01

 Vector  103  Occ=0.000000D+00  E= 2.998414D-01

 Vector  104  Occ=0.000000D+00  E= 3.125534D-01

 Vector  105  Occ=0.000000D+00  E= 3.164120D-01

 Vector  106  Occ=0.000000D+00  E= 3.194780D-01

 Vector  107  Occ=0.000000D+00  E= 3.265156D-01

 Vector  108  Occ=0.000000D+00  E= 3.307729D-01

 Vector  109  Occ=0.000000D+00  E= 3.350579D-01

 Vector  110  Occ=0.000000D+00  E= 3.378404D-01

 Vector  111  Occ=0.000000D+00  E= 3.430045D-01

 Vector  112  Occ=0.000000D+00  E= 3.476155D-01

 Vector  113  Occ=0.000000D+00  E= 3.497033D-01

 Vector  114  Occ=0.000000D+00  E= 3.583395D-01

 Vector  115  Occ=0.000000D+00  E= 3.610134D-01

 Vector  116  Occ=0.000000D+00  E= 3.703876D-01

 Vector  117  Occ=0.000000D+00  E= 3.709631D-01

 Vector  118  Occ=0.000000D+00  E= 3.749453D-01

 Vector  119  Occ=0.000000D+00  E= 3.833290D-01

 Vector  120  Occ=0.000000D+00  E= 3.877721D-01

 Vector  121  Occ=0.000000D+00  E= 3.911865D-01

 Vector  122  Occ=0.000000D+00  E= 3.989988D-01

 Vector  123  Occ=0.000000D+00  E= 4.032810D-01

 Vector  124  Occ=0.000000D+00  E= 4.067911D-01

 Vector  125  Occ=0.000000D+00  E= 4.129677D-01

 Vector  126  Occ=0.000000D+00  E= 4.155893D-01

 Vector  127  Occ=0.000000D+00  E= 4.193252D-01

 Vector  128  Occ=0.000000D+00  E= 4.234994D-01

 Vector  129  Occ=0.000000D+00  E= 4.324243D-01

 Vector  130  Occ=0.000000D+00  E= 4.384004D-01

 Vector  131  Occ=0.000000D+00  E= 4.435928D-01

 Vector  132  Occ=0.000000D+00  E= 4.470689D-01

 Vector  133  Occ=0.000000D+00  E= 4.558184D-01

 Vector  134  Occ=0.000000D+00  E= 4.586235D-01

 Vector  135  Occ=0.000000D+00  E= 4.683913D-01

 Vector  136  Occ=0.000000D+00  E= 4.711800D-01

 Vector  137  Occ=0.000000D+00  E= 4.801071D-01

 Vector  138  Occ=0.000000D+00  E= 4.847108D-01

 Vector  139  Occ=0.000000D+00  E= 4.900858D-01

 Vector  140  Occ=0.000000D+00  E= 4.941715D-01

 Vector  141  Occ=0.000000D+00  E= 4.990590D-01

 Vector  142  Occ=0.000000D+00  E= 5.006507D-01

       Multipole analysis of the density wrt the origin
       ------------------------------------------------

     L   x y z        total         open         nuclear
     -   - - -        -----         ----         -------
     0   0 0 0     -0.000000      0.000000    100.000000

     1   1 0 0     -1.479446      0.000000     -0.000000
     1   0 1 0     -1.773328      0.000000     -0.000000
     1   0 0 1      0.419431      0.000000     -0.000000

     2   2 0 0    -65.799038      0.000000    336.915102
     2   1 1 0      1.267819      0.000000     -1.028305
     2   1 0 1      4.184478      0.000000     14.323723
     2   0 2 0    -43.018864      0.000000   3328.817756
     2   0 1 1      4.128450      0.000000      5.466566

 Total times  cpu:     1879.4s     wall:     2247.4s
