 Output coordinates in angstroms (scale by  1.889725989 to convert to a.u.)

  No.       Tag          Charge          X              Y              Z
 ---- ---------------- ---------- -------------- -------------- --------------
    1 H                    1.0000    -0.85342073    -5.33552419     1.56717234
    2 C                    6.0000    -0.35092141    -5.49366019     0.61421461
    3 H                    1.0000    -1.07669556    -5.77067615    -0.14848850
    4 H                    1.0000     0.39011238    -6.28471788     0.71837628
    5 C                    6.0000     0.34837475    -4.22055143     0.19944965
    6 O                    8.0000     1.56080015    -4.21057991     0.03692206
    7 N                    7.0000    -0.41974903    -3.14594963     0.03462606
    8 H                    1.0000    -1.40734665    -3.22393998     0.22529449
    9 C                    6.0000     0.07512811    -1.82311067    -0.34564582
   10 H                    1.0000     1.07895694    -1.68935495     0.06376973
   11 C                    6.0000     0.16299028    -1.74315328    -1.87712976
   12 H                    1.0000     0.82672272    -2.52482888    -2.24919227
   13 H                    1.0000    -0.82695930    -1.87263514    -2.31592388
   14 H                    1.0000     0.56496614    -0.77425945    -2.17819808
   15 C                    6.0000    -0.81938807    -0.70856173     0.22702378
   16 O                    8.0000    -1.97574650    -0.94336845     0.57432047
   17 N                    7.0000    -0.29274726     0.51618309     0.29209740
   18 H                    1.0000     0.64627646     0.63967658    -0.06058350
   19 C                    6.0000    -0.95149787     1.72050873     0.82848009
   20 H                    1.0000    -1.46521014     1.42481862     1.74388604
   21 C                    6.0000     0.12475015     2.75271868     1.22822851
   22 H                    1.0000    -0.37276396     3.59345158     1.71249486
   23 H                    1.0000     0.78834732     2.30735619     1.96985109
   24 C                    6.0000     0.96574547     3.30387021     0.06186584
   25 H                    1.0000     0.29439911     3.63457798    -0.72994881
   26 H                    1.0000     1.49624967     4.18726326     0.41915007
   27 S                   16.0000     2.19763596     2.17860228    -0.66681233
   28 C                    6.0000     3.41941731     2.08971588     0.67020021
   29 H                    1.0000     3.77601056     3.09305545     0.90810768
   30 H                    1.0000     2.97275710     1.64243824     1.55792504
   31 H                    1.0000     4.26302208     1.47850167     0.34882163
   32 C                    6.0000    -2.04758531     2.31598025    -0.08697990
   33 O                    8.0000    -2.23900606     3.52421293    -0.14695410
   34 N                    7.0000    -2.77750923     1.50014659    -0.83567377
   35 H                    1.0000    -2.67227458     0.50199484    -0.72547050
   36 H                    1.0000    -3.48574755     1.89785020    -1.42794509

         Total SCF energy =  -1175.384393115473

 Vector  115  Occ=0.000000D+00  E= 1.933273D-01

 Vector  116  Occ=0.000000D+00  E= 1.993534D-01

 Vector  117  Occ=0.000000D+00  E= 2.003048D-01

 Vector  118  Occ=0.000000D+00  E= 2.033809D-01

 Vector  119  Occ=0.000000D+00  E= 2.060536D-01

 Vector  120  Occ=0.000000D+00  E= 2.082665D-01

 Vector  121  Occ=0.000000D+00  E= 2.124167D-01

 Vector  122  Occ=0.000000D+00  E= 2.163650D-01

 Vector  123  Occ=0.000000D+00  E= 2.190093D-01

 Vector  124  Occ=0.000000D+00  E= 2.210041D-01

 Vector  125  Occ=0.000000D+00  E= 2.238915D-01

 Vector  126  Occ=0.000000D+00  E= 2.301452D-01

 Vector  127  Occ=0.000000D+00  E= 2.352156D-01

 Vector  128  Occ=0.000000D+00  E= 2.365301D-01

 Vector  129  Occ=0.000000D+00  E= 2.407430D-01

 Vector  130  Occ=0.000000D+00  E= 2.482104D-01

 Vector  131  Occ=0.000000D+00  E= 2.524595D-01

 Vector  132  Occ=0.000000D+00  E= 2.569889D-01

 Vector  133  Occ=0.000000D+00  E= 2.591067D-01

 Vector  134  Occ=0.000000D+00  E= 2.604794D-01

 Vector  135  Occ=0.000000D+00  E= 2.706043D-01

 Vector  136  Occ=0.000000D+00  E= 2.715707D-01

 Vector  137  Occ=0.000000D+00  E= 2.765770D-01

 Vector  138  Occ=0.000000D+00  E= 2.811758D-01

 Vector  139  Occ=0.000000D+00  E= 2.880340D-01

 Vector  140  Occ=0.000000D+00  E= 2.937132D-01

 Vector  141  Occ=0.000000D+00  E= 3.006895D-01

 Vector  142  Occ=0.000000D+00  E= 3.058572D-01

 Vector  143  Occ=0.000000D+00  E= 3.126361D-01

 Vector  144  Occ=0.000000D+00  E= 3.160517D-01

 Vector  145  Occ=0.000000D+00  E= 3.175818D-01

 Vector  146  Occ=0.000000D+00  E= 3.215785D-01

 Vector  147  Occ=0.000000D+00  E= 3.286110D-01

 Vector  148  Occ=0.000000D+00  E= 3.306479D-01

 Vector  149  Occ=0.000000D+00  E= 3.363564D-01

 Vector  150  Occ=0.000000D+00  E= 3.390411D-01

 Vector  151  Occ=0.000000D+00  E= 3.443010D-01

 Vector  152  Occ=0.000000D+00  E= 3.473984D-01

 Vector  153  Occ=0.000000D+00  E= 3.516956D-01

 Vector  154  Occ=0.000000D+00  E= 3.554469D-01

 Vector  155  Occ=0.000000D+00  E= 3.632970D-01

 Vector  156  Occ=0.000000D+00  E= 3.636821D-01

 Vector  157  Occ=0.000000D+00  E= 3.671575D-01

 Vector  158  Occ=0.000000D+00  E= 3.695041D-01

 Vector  159  Occ=0.000000D+00  E= 3.714371D-01

 Vector  160  Occ=0.000000D+00  E= 3.778686D-01

 Vector  161  Occ=0.000000D+00  E= 3.808133D-01

 Vector  162  Occ=0.000000D+00  E= 3.839319D-01

 Vector  163  Occ=0.000000D+00  E= 3.885211D-01

 Vector  164  Occ=0.000000D+00  E= 3.926799D-01

 Vector  165  Occ=0.000000D+00  E= 3.950962D-01

 Vector  166  Occ=0.000000D+00  E= 3.996981D-01

 Vector  167  Occ=0.000000D+00  E= 4.025244D-01

 Vector  168  Occ=0.000000D+00  E= 4.058496D-01

 Vector  169  Occ=0.000000D+00  E= 4.078442D-01

 Vector  170  Occ=0.000000D+00  E= 4.127576D-01

 Vector  171  Occ=0.000000D+00  E= 4.167462D-01

 Vector  172  Occ=0.000000D+00  E= 4.194800D-01

 Vector  173  Occ=0.000000D+00  E= 4.243855D-01

 Vector  174  Occ=0.000000D+00  E= 4.272241D-01

 Vector  175  Occ=0.000000D+00  E= 4.347294D-01

 Vector  176  Occ=0.000000D+00  E= 4.350172D-01

 Vector  177  Occ=0.000000D+00  E= 4.384550D-01

 Vector  178  Occ=0.000000D+00  E= 4.425877D-01

 Vector  179  Occ=0.000000D+00  E= 4.466465D-01

 Vector  180  Occ=0.000000D+00  E= 4.503262D-01

 Vector  181  Occ=0.000000D+00  E= 4.539150D-01

 Vector  182  Occ=0.000000D+00  E= 4.590134D-01

 Vector  183  Occ=0.000000D+00  E= 4.606965D-01

 Vector  184  Occ=0.000000D+00  E= 4.639172D-01

 Vector  185  Occ=0.000000D+00  E= 4.659500D-01

 Vector  186  Occ=0.000000D+00  E= 4.716062D-01

 Vector  187  Occ=0.000000D+00  E= 4.752648D-01

 Vector  188  Occ=0.000000D+00  E= 4.794831D-01

 Vector  189  Occ=0.000000D+00  E= 4.809138D-01

 Vector  190  Occ=0.000000D+00  E= 4.839938D-01

 Vector  191  Occ=0.000000D+00  E= 4.930278D-01

 Vector  192  Occ=0.000000D+00  E= 4.956025D-01

 Vector  193  Occ=0.000000D+00  E= 4.973018D-01

 Vector  194  Occ=0.000000D+00  E= 5.011242D-01

       Multipole analysis of the density wrt the origin
       ------------------------------------------------

     L   x y z        total         open         nuclear
     -   - - -        -----         ----         -------
     0   0 0 0     -0.000000      0.000000    140.000000

     1   1 0 0      0.121005      0.000000     -0.000000
     1   0 1 0     -0.054216      0.000000     -0.000000
     1   0 0 1      0.323223      0.000000      0.000000

     2   2 0 0    -85.783499      0.000000   1461.041994
     2   1 1 0     18.124559      0.000000     55.137652
     2   1 0 1      6.629973      0.000000     22.764285
     2   0 2 0    -91.622632      0.000000   4007.156731
     2   0 1 1      3.747545      0.000000     24.527860

 Total times  cpu:     5264.8s     wall:     5379.4s
