 Output coordinates in angstroms (scale by  1.889725989 to convert to a.u.)

  No.       Tag          Charge          X              Y              Z
 ---- ---------------- ---------- -------------- -------------- --------------
    1 H                    1.0000    -2.51992515     4.22349760     0.09623768
    2 C                    6.0000    -2.56348617     3.15916227     0.31796214
    3 H                    1.0000    -3.47888247     2.73997376    -0.09851309
    4 H                    1.0000    -2.54826160     3.00196585     1.39477387
    5 C                    6.0000    -1.37780530     2.46687194    -0.30918374
    6 O                    8.0000    -1.54721223     1.57961723    -1.13567837
    7 N                    7.0000    -0.17105606     2.85665078     0.09535271
    8 H                    1.0000    -0.12044177     3.58378802     0.78928904
    9 C                    6.0000     1.09968669     2.31490732    -0.40217405
   10 H                    1.0000     1.01817238     2.21374582    -1.48488997
   11 C                    6.0000     2.19973739     3.34964956    -0.11524555
   12 H                    1.0000     1.93814061     4.30780634    -0.56512967
   13 H                    1.0000     2.32659468     3.47349048     0.96117289
   14 H                    1.0000     3.14359273     3.00772557    -0.54310310
   15 C                    6.0000     1.42651165     0.90208274     0.14680332
   16 O                    8.0000     2.50111617     0.66794384     0.69410681
   17 N                    7.0000     0.48965555    -0.04296200     0.01803577
   18 H                    1.0000    -0.35967177     0.22804874    -0.46654888
   19 C                    6.0000     0.53078119    -1.40628864     0.58577088
   20 H                    1.0000     0.91056804    -1.31348283     1.60418535
   21 C                    6.0000    -0.90428793    -1.98310615     0.69276699
   22 H                    1.0000    -0.82746951    -2.96323530     1.16714954
   23 C                    6.0000    -1.76497473    -1.10555690     1.62158320
   24 H                    1.0000    -2.00357084    -0.15633033     1.14095465
   25 H                    1.0000    -2.69365908    -1.62079917     1.86601273
   26 H                    1.0000    -1.22970243    -0.91409387     2.55260761
   27 C                    6.0000    -1.56886492    -2.17368624    -0.69209497
   28 H                    1.0000    -1.75692962    -1.20170784    -1.14965989
   29 H                    1.0000    -0.89240195    -2.72413451    -1.34584839
   30 C                    6.0000    -2.88897515    -2.95326093    -0.63890390
   31 H                    1.0000    -3.64608181    -2.38483948    -0.10043517
   32 H                    1.0000    -3.24344471    -3.12774745    -1.65501747
   33 H                    1.0000    -2.73323189    -3.91476655    -0.14799762
   34 C                    6.0000     1.51380571    -2.37610405    -0.11253841
   35 O                    8.0000     1.31676383    -3.58478029    -0.12643935
   36 N                    7.0000     2.58490546    -1.88513988    -0.72014066
   37 H                    1.0000     3.21740306    -2.52622077    -1.16825904
   38 H                    1.0000     2.79655566    -0.90279820    -0.62410409

         Total SCF energy =   -816.890964827500

 Vector  109  Occ=0.000000D+00  E= 1.893847D-01

 Vector  110  Occ=0.000000D+00  E= 1.915608D-01

 Vector  111  Occ=0.000000D+00  E= 1.954685D-01

 Vector  112  Occ=0.000000D+00  E= 1.991113D-01

 Vector  113  Occ=0.000000D+00  E= 2.052842D-01

 Vector  114  Occ=0.000000D+00  E= 2.056312D-01

 Vector  115  Occ=0.000000D+00  E= 2.097319D-01

 Vector  116  Occ=0.000000D+00  E= 2.123603D-01

 Vector  117  Occ=0.000000D+00  E= 2.159706D-01

 Vector  118  Occ=0.000000D+00  E= 2.218580D-01

 Vector  119  Occ=0.000000D+00  E= 2.226813D-01

 Vector  120  Occ=0.000000D+00  E= 2.271860D-01

 Vector  121  Occ=0.000000D+00  E= 2.294331D-01

 Vector  122  Occ=0.000000D+00  E= 2.352545D-01

 Vector  123  Occ=0.000000D+00  E= 2.418468D-01

 Vector  124  Occ=0.000000D+00  E= 2.445617D-01

 Vector  125  Occ=0.000000D+00  E= 2.497828D-01

 Vector  126  Occ=0.000000D+00  E= 2.516425D-01

 Vector  127  Occ=0.000000D+00  E= 2.580933D-01

 Vector  128  Occ=0.000000D+00  E= 2.625801D-01

 Vector  129  Occ=0.000000D+00  E= 2.633152D-01

 Vector  130  Occ=0.000000D+00  E= 2.648847D-01

 Vector  131  Occ=0.000000D+00  E= 2.764403D-01

 Vector  132  Occ=0.000000D+00  E= 2.857140D-01

 Vector  133  Occ=0.000000D+00  E= 2.860808D-01

 Vector  134  Occ=0.000000D+00  E= 2.892099D-01

 Vector  135  Occ=0.000000D+00  E= 2.976007D-01

 Vector  136  Occ=0.000000D+00  E= 3.004188D-01

 Vector  137  Occ=0.000000D+00  E= 3.102775D-01

 Vector  138  Occ=0.000000D+00  E= 3.139592D-01

 Vector  139  Occ=0.000000D+00  E= 3.171269D-01

 Vector  140  Occ=0.000000D+00  E= 3.185791D-01

 Vector  141  Occ=0.000000D+00  E= 3.253366D-01

 Vector  142  Occ=0.000000D+00  E= 3.333581D-01

 Vector  143  Occ=0.000000D+00  E= 3.347539D-01

 Vector  144  Occ=0.000000D+00  E= 3.395479D-01

 Vector  145  Occ=0.000000D+00  E= 3.445955D-01

 Vector  146  Occ=0.000000D+00  E= 3.470321D-01

 Vector  147  Occ=0.000000D+00  E= 3.516893D-01

 Vector  148  Occ=0.000000D+00  E= 3.561337D-01

 Vector  149  Occ=0.000000D+00  E= 3.620254D-01

 Vector  150  Occ=0.000000D+00  E= 3.639875D-01

 Vector  151  Occ=0.000000D+00  E= 3.690903D-01

 Vector  152  Occ=0.000000D+00  E= 3.716238D-01

 Vector  153  Occ=0.000000D+00  E= 3.749044D-01

 Vector  154  Occ=0.000000D+00  E= 3.797580D-01

 Vector  155  Occ=0.000000D+00  E= 3.810749D-01

 Vector  156  Occ=0.000000D+00  E= 3.842836D-01

 Vector  157  Occ=0.000000D+00  E= 3.881222D-01

 Vector  158  Occ=0.000000D+00  E= 3.901223D-01

 Vector  159  Occ=0.000000D+00  E= 3.976230D-01

 Vector  160  Occ=0.000000D+00  E= 3.994183D-01

 Vector  161  Occ=0.000000D+00  E= 4.006902D-01

 Vector  162  Occ=0.000000D+00  E= 4.044676D-01

 Vector  163  Occ=0.000000D+00  E= 4.086260D-01

 Vector  164  Occ=0.000000D+00  E= 4.106552D-01

 Vector  165  Occ=0.000000D+00  E= 4.173749D-01

 Vector  166  Occ=0.000000D+00  E= 4.201882D-01

 Vector  167  Occ=0.000000D+00  E= 4.223461D-01

 Vector  168  Occ=0.000000D+00  E= 4.260556D-01

 Vector  169  Occ=0.000000D+00  E= 4.305201D-01

 Vector  170  Occ=0.000000D+00  E= 4.312646D-01

 Vector  171  Occ=0.000000D+00  E= 4.356861D-01

 Vector  172  Occ=0.000000D+00  E= 4.392248D-01

 Vector  173  Occ=0.000000D+00  E= 4.476051D-01

 Vector  174  Occ=0.000000D+00  E= 4.510102D-01

 Vector  175  Occ=0.000000D+00  E= 4.574508D-01

 Vector  176  Occ=0.000000D+00  E= 4.614835D-01

 Vector  177  Occ=0.000000D+00  E= 4.616219D-01

 Vector  178  Occ=0.000000D+00  E= 4.656360D-01

 Vector  179  Occ=0.000000D+00  E= 4.680848D-01

 Vector  180  Occ=0.000000D+00  E= 4.740254D-01

 Vector  181  Occ=0.000000D+00  E= 4.770394D-01

 Vector  182  Occ=0.000000D+00  E= 4.782114D-01

 Vector  183  Occ=0.000000D+00  E= 4.810332D-01

 Vector  184  Occ=0.000000D+00  E= 4.899085D-01

 Vector  185  Occ=0.000000D+00  E= 4.927888D-01

 Vector  186  Occ=0.000000D+00  E= 4.952880D-01

 Vector  187  Occ=0.000000D+00  E= 4.970835D-01

 Vector  188  Occ=0.000000D+00  E= 5.002050D-01

       Multipole analysis of the density wrt the origin
       ------------------------------------------------

     L   x y z        total         open         nuclear
     -   - - -        -----         ----         -------
     0   0 0 0     -0.000000      0.000000    132.000000

     1   1 0 0     -0.658746      0.000000     -0.000000
     1   0 1 0      2.899763      0.000000      0.000000
     1   0 0 1      0.300628      0.000000      0.000000

     2   2 0 0    -78.515171      0.000000   1598.894408
     2   1 1 0      0.643041      0.000000     53.362909
     2   1 0 1     -8.152061      0.000000    -20.643504
     2   0 2 0    -77.247027      0.000000   2568.033025
     2   0 1 1      2.348950      0.000000     11.521101

 Total times  cpu:     5696.5s     wall:     6035.8s
