 Output coordinates in angstroms (scale by  1.889725989 to convert to a.u.)

  No.       Tag          Charge          X              Y              Z
 ---- ---------------- ---------- -------------- -------------- --------------
    1 H                    1.0000     0.19161306     5.16143672     0.00019478
    2 C                    6.0000     0.86092795     4.34829061    -0.27428105
    3 H                    1.0000     1.84735624     4.52807049     0.15165018
    4 H                    1.0000     0.93944906     4.28057309    -1.35879697
    5 C                    6.0000     0.32214777     3.04641125     0.26740434
    6 O                    8.0000     0.99090391     2.37441990     1.04487386
    7 N                    7.0000    -0.88996176     2.67758774    -0.14543182
    8 H                    1.0000    -1.36698996     3.25229471    -0.81970179
    9 C                    6.0000    -1.50480368     1.40904560     0.24348498
   10 H                    1.0000    -1.56055697     1.37636567     1.33279421
   11 C                    6.0000    -2.93370087     1.35512848    -0.31130214
   12 H                    1.0000    -3.51315682     2.19654509     0.07007154
   13 H                    1.0000    -2.91228674     1.39422662    -1.40140432
   14 H                    1.0000    -3.41203897     0.42620770    -0.00015450
   15 C                    6.0000    -0.65208351     0.21722587    -0.23577804
   16 O                    8.0000    -0.35900865     0.09968791    -1.42288838
   17 N                    7.0000    -0.25612108    -0.65665148     0.69650631
   18 H                    1.0000    -0.54289245    -0.48515598     1.64634497
   19 C                    6.0000     0.68724330    -1.76569176     0.47532697
   20 H                    1.0000     0.87304673    -2.21435505     1.45022817
   21 C                    6.0000     0.04278085    -2.86683548    -0.38608794
   22 H                    1.0000    -0.09951193    -2.50254479    -1.40593453
   23 H                    1.0000     0.71684979    -3.72559404    -0.42473777
   24 S                   16.0000    -1.55266250    -3.39370245     0.31085447
   25 H                    1.0000    -2.25684068    -2.34898318    -0.13544111
   26 C                    6.0000     2.08963021    -1.35146898    -0.03191700
   27 O                    8.0000     2.86034456    -2.19351016    -0.47717990
   28 N                    7.0000     2.47320146    -0.08142611     0.04485669
   29 H                    1.0000     3.38708270     0.15944929    -0.29933237
   30 H                    1.0000     1.85087618     0.62671712     0.40948446

         Total SCF energy =  -1097.311164101896

 Vector   87  Occ=0.000000D+00  E= 1.496334D-01

 Vector   88  Occ=0.000000D+00  E= 1.505914D-01

 Vector   89  Occ=0.000000D+00  E= 1.555403D-01

 Vector   90  Occ=0.000000D+00  E= 1.583958D-01

 Vector   91  Occ=0.000000D+00  E= 1.627241D-01

 Vector   92  Occ=0.000000D+00  E= 1.643979D-01

 Vector   93  Occ=0.000000D+00  E= 1.660541D-01

 Vector   94  Occ=0.000000D+00  E= 1.677575D-01

 Vector   95  Occ=0.000000D+00  E= 1.731098D-01

 Vector   96  Occ=0.000000D+00  E= 1.740466D-01

 Vector   97  Occ=0.000000D+00  E= 1.755408D-01

 Vector   98  Occ=0.000000D+00  E= 1.803300D-01

 Vector   99  Occ=0.000000D+00  E= 1.821321D-01

 Vector  100  Occ=0.000000D+00  E= 1.855860D-01

 Vector  101  Occ=0.000000D+00  E= 1.912589D-01

 Vector  102  Occ=0.000000D+00  E= 1.953539D-01

 Vector  103  Occ=0.000000D+00  E= 1.978549D-01

 Vector  104  Occ=0.000000D+00  E= 2.082708D-01

 Vector  105  Occ=0.000000D+00  E= 2.097484D-01

 Vector  106  Occ=0.000000D+00  E= 2.138505D-01

 Vector  107  Occ=0.000000D+00  E= 2.168415D-01

 Vector  108  Occ=0.000000D+00  E= 2.223305D-01

 Vector  109  Occ=0.000000D+00  E= 2.242789D-01

 Vector  110  Occ=0.000000D+00  E= 2.321933D-01

 Vector  111  Occ=0.000000D+00  E= 2.394887D-01

 Vector  112  Occ=0.000000D+00  E= 2.460943D-01

 Vector  113  Occ=0.000000D+00  E= 2.490803D-01

 Vector  114  Occ=0.000000D+00  E= 2.529728D-01

 Vector  115  Occ=0.000000D+00  E= 2.571301D-01

 Vector  116  Occ=0.000000D+00  E= 2.609202D-01

 Vector  117  Occ=0.000000D+00  E= 2.673688D-01

 Vector  118  Occ=0.000000D+00  E= 2.784189D-01

 Vector  119  Occ=0.000000D+00  E= 2.806113D-01

 Vector  120  Occ=0.000000D+00  E= 2.929742D-01

 Vector  121  Occ=0.000000D+00  E= 2.979775D-01

 Vector  122  Occ=0.000000D+00  E= 3.007682D-01

 Vector  123  Occ=0.000000D+00  E= 3.039464D-01

 Vector  124  Occ=0.000000D+00  E= 3.101930D-01

 Vector  125  Occ=0.000000D+00  E= 3.135411D-01

 Vector  126  Occ=0.000000D+00  E= 3.182079D-01

 Vector  127  Occ=0.000000D+00  E= 3.214328D-01

 Vector  128  Occ=0.000000D+00  E= 3.250592D-01

 Vector  129  Occ=0.000000D+00  E= 3.352928D-01

 Vector  130  Occ=0.000000D+00  E= 3.414202D-01

 Vector  131  Occ=0.000000D+00  E= 3.460188D-01

 Vector  132  Occ=0.000000D+00  E= 3.484280D-01

 Vector  133  Occ=0.000000D+00  E= 3.513749D-01

 Vector  134  Occ=0.000000D+00  E= 3.567496D-01

 Vector  135  Occ=0.000000D+00  E= 3.622846D-01

 Vector  136  Occ=0.000000D+00  E= 3.682287D-01

 Vector  137  Occ=0.000000D+00  E= 3.709814D-01

 Vector  138  Occ=0.000000D+00  E= 3.777509D-01

 Vector  139  Occ=0.000000D+00  E= 3.816298D-01

 Vector  140  Occ=0.000000D+00  E= 3.834857D-01

 Vector  141  Occ=0.000000D+00  E= 3.871186D-01

 Vector  142  Occ=0.000000D+00  E= 3.927845D-01

 Vector  143  Occ=0.000000D+00  E= 3.968238D-01

 Vector  144  Occ=0.000000D+00  E= 3.993299D-01

 Vector  145  Occ=0.000000D+00  E= 4.017529D-01

 Vector  146  Occ=0.000000D+00  E= 4.083943D-01

 Vector  147  Occ=0.000000D+00  E= 4.102363D-01

 Vector  148  Occ=0.000000D+00  E= 4.148700D-01

 Vector  149  Occ=0.000000D+00  E= 4.196402D-01

 Vector  150  Occ=0.000000D+00  E= 4.225847D-01

 Vector  151  Occ=0.000000D+00  E= 4.291636D-01

 Vector  152  Occ=0.000000D+00  E= 4.316482D-01

 Vector  153  Occ=0.000000D+00  E= 4.351824D-01

 Vector  154  Occ=0.000000D+00  E= 4.377569D-01

 Vector  155  Occ=0.000000D+00  E= 4.473999D-01

 Vector  156  Occ=0.000000D+00  E= 4.527420D-01

 Vector  157  Occ=0.000000D+00  E= 4.615102D-01

 Vector  158  Occ=0.000000D+00  E= 4.641058D-01

 Vector  159  Occ=0.000000D+00  E= 4.683803D-01

 Vector  160  Occ=0.000000D+00  E= 4.731819D-01

 Vector  161  Occ=0.000000D+00  E= 4.787165D-01

 Vector  162  Occ=0.000000D+00  E= 4.849268D-01

 Vector  163  Occ=0.000000D+00  E= 4.888853D-01

 Vector  164  Occ=0.000000D+00  E= 4.966935D-01

 Vector  165  Occ=0.000000D+00  E= 4.993341D-01

 Vector  166  Occ=0.000000D+00  E= 5.024193D-01

       Multipole analysis of the density wrt the origin
       ------------------------------------------------

     L   x y z        total         open         nuclear
     -   - - -        -----         ----         -------
     0   0 0 0     -0.000000      0.000000    124.000000

     1   1 0 0     -1.831200      0.000000      0.000000
     1   0 1 0      2.668082      0.000000     -0.000000
     1   0 0 1      0.631281      0.000000     -0.000000

     2   2 0 0    -75.019901      0.000000   1165.226654
     2   1 1 0      0.484916      0.000000     -6.565242
     2   1 0 1      0.299455      0.000000      3.798522
     2   0 2 0    -69.572591      0.000000   2530.557093
     2   0 1 1     -6.465456      0.000000    -10.969840

 Total times  cpu:     2982.0s     wall:     3105.9s
