 Output coordinates in angstroms (scale by  1.889725989 to convert to a.u.)

  No.       Tag          Charge          X              Y              Z
 ---- ---------------- ---------- -------------- -------------- --------------
    1 H                    1.0000    -3.14398623     3.28678346    -0.41506775
    2 C                    6.0000    -2.23323942     3.56309809     0.11556629
    3 H                    1.0000    -2.36151666     3.37543317     1.18032392
    4 H                    1.0000    -2.01870655     4.61629105    -0.05507438
    5 C                    6.0000    -1.09027579     2.72620195    -0.40689329
    6 O                    8.0000    -1.28713325     1.89693705    -1.28577147
    7 N                    7.0000     0.10410722     2.93601739     0.14369975
    8 H                    1.0000     0.17340075     3.63051924     0.86876843
    9 C                    6.0000     1.33558564     2.22559664    -0.22156215
   10 H                    1.0000     1.37948645     2.16284361    -1.31028790
   11 C                    6.0000     2.53028262     3.07244126     0.24425039
   12 H                    1.0000     2.52687133     3.15977150     1.33172719
   13 H                    1.0000     3.45902270     2.59313213    -0.06708647
   14 H                    1.0000     2.48124299     4.06619709    -0.20319845
   15 C                    6.0000     1.37209887     0.77076519     0.30664162
   16 O                    8.0000     2.22445330     0.40259475     1.11516834
   17 N                    7.0000     0.41380261    -0.05544145    -0.11835706
   18 H                    1.0000    -0.26385387     0.31605287    -0.77625650
   19 C                    6.0000     0.31446918    -1.47286017     0.25382436
   20 H                    1.0000     0.46601130    -1.55763358     1.33022088
   21 C                    6.0000    -1.09589049    -2.02234767    -0.07416818
   22 H                    1.0000    -1.28653286    -1.86396142    -1.13691476
   23 C                    6.0000    -1.17948541    -3.53666448     0.20814634
   24 H                    1.0000    -0.45365156    -4.07896147    -0.39754846
   25 H                    1.0000    -0.99230995    -3.73552639     1.26356487
   26 H                    1.0000    -2.16227912    -3.91881134    -0.06083377
   27 C                    6.0000    -2.17492185    -1.26156751     0.73802752
   28 H                    1.0000    -2.03707723    -1.46149051     1.80108427
   29 H                    1.0000    -2.05584728    -0.18928335     0.58351882
   30 C                    6.0000    -3.61889760    -1.60325781     0.34996597
   31 H                    1.0000    -3.75453530    -1.47925229    -0.72548698
   32 H                    1.0000    -3.86254200    -2.62600340     0.63558262
   33 H                    1.0000    -4.29960744    -0.92935816     0.87117072
   34 C                    6.0000     1.43047501    -2.26558595    -0.44472115
   35 O                    8.0000     1.48153184    -2.35604580    -1.66572738
   36 N                    7.0000     2.32953742    -2.87489338     0.31553225
   37 H                    1.0000     3.06819581    -3.38283556    -0.14155474
   38 H                    1.0000     2.31406423    -2.74648995     1.31340155

         Total SCF energy =   -816.893019882812

 Vector  110  Occ=0.000000D+00  E= 1.920502D-01

 Vector  111  Occ=0.000000D+00  E= 1.944329D-01

 Vector  112  Occ=0.000000D+00  E= 2.010079D-01

 Vector  113  Occ=0.000000D+00  E= 2.030049D-01

 Vector  114  Occ=0.000000D+00  E= 2.063229D-01

 Vector  115  Occ=0.000000D+00  E= 2.086838D-01

 Vector  116  Occ=0.000000D+00  E= 2.103463D-01

 Vector  117  Occ=0.000000D+00  E= 2.130957D-01

 Vector  118  Occ=0.000000D+00  E= 2.172636D-01

 Vector  119  Occ=0.000000D+00  E= 2.208107D-01

 Vector  120  Occ=0.000000D+00  E= 2.235519D-01

 Vector  121  Occ=0.000000D+00  E= 2.273926D-01

 Vector  122  Occ=0.000000D+00  E= 2.295980D-01

 Vector  123  Occ=0.000000D+00  E= 2.349943D-01

 Vector  124  Occ=0.000000D+00  E= 2.410449D-01

 Vector  125  Occ=0.000000D+00  E= 2.441678D-01

 Vector  126  Occ=0.000000D+00  E= 2.500115D-01

 Vector  127  Occ=0.000000D+00  E= 2.545645D-01

 Vector  128  Occ=0.000000D+00  E= 2.612785D-01

 Vector  129  Occ=0.000000D+00  E= 2.630191D-01

 Vector  130  Occ=0.000000D+00  E= 2.708489D-01

 Vector  131  Occ=0.000000D+00  E= 2.779535D-01

 Vector  132  Occ=0.000000D+00  E= 2.847676D-01

 Vector  133  Occ=0.000000D+00  E= 2.917590D-01

 Vector  134  Occ=0.000000D+00  E= 2.928378D-01

 Vector  135  Occ=0.000000D+00  E= 3.024037D-01

 Vector  136  Occ=0.000000D+00  E= 3.069465D-01

 Vector  137  Occ=0.000000D+00  E= 3.133447D-01

 Vector  138  Occ=0.000000D+00  E= 3.187771D-01

 Vector  139  Occ=0.000000D+00  E= 3.246005D-01

 Vector  140  Occ=0.000000D+00  E= 3.265795D-01

 Vector  141  Occ=0.000000D+00  E= 3.324433D-01

 Vector  142  Occ=0.000000D+00  E= 3.366817D-01

 Vector  143  Occ=0.000000D+00  E= 3.389900D-01

 Vector  144  Occ=0.000000D+00  E= 3.456622D-01

 Vector  145  Occ=0.000000D+00  E= 3.486871D-01

 Vector  146  Occ=0.000000D+00  E= 3.495440D-01

 Vector  147  Occ=0.000000D+00  E= 3.545533D-01

 Vector  148  Occ=0.000000D+00  E= 3.574444D-01

 Vector  149  Occ=0.000000D+00  E= 3.594199D-01

 Vector  150  Occ=0.000000D+00  E= 3.638066D-01

 Vector  151  Occ=0.000000D+00  E= 3.692694D-01

 Vector  152  Occ=0.000000D+00  E= 3.764771D-01

 Vector  153  Occ=0.000000D+00  E= 3.787511D-01

 Vector  154  Occ=0.000000D+00  E= 3.835255D-01

 Vector  155  Occ=0.000000D+00  E= 3.870765D-01

 Vector  156  Occ=0.000000D+00  E= 3.890261D-01

 Vector  157  Occ=0.000000D+00  E= 3.911746D-01

 Vector  158  Occ=0.000000D+00  E= 3.971402D-01

 Vector  159  Occ=0.000000D+00  E= 3.983745D-01

 Vector  160  Occ=0.000000D+00  E= 4.017483D-01

 Vector  161  Occ=0.000000D+00  E= 4.044057D-01

 Vector  162  Occ=0.000000D+00  E= 4.086374D-01

 Vector  163  Occ=0.000000D+00  E= 4.111656D-01

 Vector  164  Occ=0.000000D+00  E= 4.149250D-01

 Vector  165  Occ=0.000000D+00  E= 4.169032D-01

 Vector  166  Occ=0.000000D+00  E= 4.199291D-01

 Vector  167  Occ=0.000000D+00  E= 4.223427D-01

 Vector  168  Occ=0.000000D+00  E= 4.257371D-01

 Vector  169  Occ=0.000000D+00  E= 4.357497D-01

 Vector  170  Occ=0.000000D+00  E= 4.375321D-01

 Vector  171  Occ=0.000000D+00  E= 4.379302D-01

 Vector  172  Occ=0.000000D+00  E= 4.424343D-01

 Vector  173  Occ=0.000000D+00  E= 4.438098D-01

 Vector  174  Occ=0.000000D+00  E= 4.446167D-01

 Vector  175  Occ=0.000000D+00  E= 4.469712D-01

 Vector  176  Occ=0.000000D+00  E= 4.563301D-01

 Vector  177  Occ=0.000000D+00  E= 4.599003D-01

 Vector  178  Occ=0.000000D+00  E= 4.668293D-01

 Vector  179  Occ=0.000000D+00  E= 4.703370D-01

 Vector  180  Occ=0.000000D+00  E= 4.752903D-01

 Vector  181  Occ=0.000000D+00  E= 4.759798D-01

 Vector  182  Occ=0.000000D+00  E= 4.778889D-01

 Vector  183  Occ=0.000000D+00  E= 4.819470D-01

 Vector  184  Occ=0.000000D+00  E= 4.866173D-01

 Vector  185  Occ=0.000000D+00  E= 4.893391D-01

 Vector  186  Occ=0.000000D+00  E= 4.943784D-01

 Vector  187  Occ=0.000000D+00  E= 4.965191D-01

 Vector  188  Occ=0.000000D+00  E= 4.992543D-01

 Vector  189  Occ=0.000000D+00  E= 5.046044D-01

       Multipole analysis of the density wrt the origin
       ------------------------------------------------

     L   x y z        total         open         nuclear
     -   - - -        -----         ----         -------
     0   0 0 0     -0.000000      0.000000    132.000000

     1   1 0 0     -0.629702      0.000000     -0.000000
     1   0 1 0      1.338484      0.000000      0.000000
     1   0 0 1      1.612702      0.000000     -0.000000

     2   2 0 0    -77.548359      0.000000   1667.490066
     2   1 1 0     -1.958270      0.000000     44.307786
     2   1 0 1     -1.564605      0.000000     -9.026743
     2   0 2 0    -61.645589      0.000000   2676.283720
     2   0 1 1     -3.735327      0.000000     -7.880362

 Total times  cpu:     5180.7s     wall:     5332.7s
