 Output coordinates in angstroms (scale by  1.889725989 to convert to a.u.)

  No.       Tag          Charge          X              Y              Z
 ---- ---------------- ---------- -------------- -------------- --------------
    1 H                    1.0000    -2.34788537    -2.28822476    -1.96280031
    2 C                    6.0000    -2.47071462    -2.72891897    -0.97474687
    3 H                    1.0000    -2.41534716    -3.81450307    -1.04145975
    4 H                    1.0000    -3.43805886    -2.43996110    -0.56570230
    5 C                    6.0000    -1.38139288    -2.22562144    -0.05938861
    6 O                    8.0000    -1.66582606    -1.57800747     0.93973246
    7 N                    7.0000    -0.12537095    -2.49673630    -0.41388211
    8 H                    1.0000     0.02630793    -3.03320739    -1.25120838
    9 C                    6.0000     1.05045982    -2.15129993     0.39917738
   10 H                    1.0000     0.92396729    -2.59851095     1.38689694
   11 C                    6.0000     2.27999428    -2.78771341    -0.26197608
   12 H                    1.0000     2.44147116    -2.35613491    -1.25054384
   13 H                    1.0000     3.16088363    -2.59875263     0.35392877
   14 H                    1.0000     2.14132152    -3.86553881    -0.35186644
   15 C                    6.0000     1.26147079    -0.63575036     0.62815309
   16 O                    8.0000     2.04745121    -0.24997283     1.48684481
   17 N                    7.0000     0.56255048     0.22556759    -0.11677831
   18 H                    1.0000    -0.07761539    -0.14547901    -0.80222421
   19 C                    6.0000     0.53793178     1.68627645     0.07794601
   20 H                    1.0000     1.53393238     2.01978881     0.37126717
   21 C                    6.0000     0.16722216     2.38870978    -1.23878205
   22 H                    1.0000     0.11778902     3.46571973    -1.07581291
   23 C                    6.0000     1.18438190     2.12179305    -2.34907593
   24 H                    1.0000     1.20031242     1.06389271    -2.60730470
   25 H                    1.0000     0.90976842     2.69827525    -3.23218222
   26 H                    1.0000     2.17607230     2.43068091    -2.01902528
   27 O                    8.0000    -1.08785077     1.93075488    -1.69377134
   28 H                    1.0000    -1.76273592     2.40062016    -1.19577067
   29 C                    6.0000    -0.42187497     2.14316303     1.18794360
   30 O                    8.0000    -0.56158463     3.33692723     1.42232418
   31 N                    7.0000    -1.13399624     1.24851033     1.86182256
   32 H                    1.0000    -1.06462532     0.26418154     1.64187370
   33 H                    1.0000    -1.75022861     1.57431842     2.58725536

         Total SCF energy =   -813.696709927538

 Vector   93  Occ=0.000000D+00  E= 1.635646D-01

 Vector   94  Occ=0.000000D+00  E= 1.669666D-01

 Vector   95  Occ=0.000000D+00  E= 1.709972D-01

 Vector   96  Occ=0.000000D+00  E= 1.735173D-01

 Vector   97  Occ=0.000000D+00  E= 1.772877D-01

 Vector   98  Occ=0.000000D+00  E= 1.789784D-01

 Vector   99  Occ=0.000000D+00  E= 1.814905D-01

 Vector  100  Occ=0.000000D+00  E= 1.846963D-01

 Vector  101  Occ=0.000000D+00  E= 1.917444D-01

 Vector  102  Occ=0.000000D+00  E= 1.940234D-01

 Vector  103  Occ=0.000000D+00  E= 1.995505D-01

 Vector  104  Occ=0.000000D+00  E= 2.014003D-01

 Vector  105  Occ=0.000000D+00  E= 2.059337D-01

 Vector  106  Occ=0.000000D+00  E= 2.071752D-01

 Vector  107  Occ=0.000000D+00  E= 2.104041D-01

 Vector  108  Occ=0.000000D+00  E= 2.132050D-01

 Vector  109  Occ=0.000000D+00  E= 2.174855D-01

 Vector  110  Occ=0.000000D+00  E= 2.216786D-01

 Vector  111  Occ=0.000000D+00  E= 2.244118D-01

 Vector  112  Occ=0.000000D+00  E= 2.342915D-01

 Vector  113  Occ=0.000000D+00  E= 2.350621D-01

 Vector  114  Occ=0.000000D+00  E= 2.426828D-01

 Vector  115  Occ=0.000000D+00  E= 2.516219D-01

 Vector  116  Occ=0.000000D+00  E= 2.540313D-01

 Vector  117  Occ=0.000000D+00  E= 2.554549D-01

 Vector  118  Occ=0.000000D+00  E= 2.679079D-01

 Vector  119  Occ=0.000000D+00  E= 2.717152D-01

 Vector  120  Occ=0.000000D+00  E= 2.762539D-01

 Vector  121  Occ=0.000000D+00  E= 2.808406D-01

 Vector  122  Occ=0.000000D+00  E= 2.815604D-01

 Vector  123  Occ=0.000000D+00  E= 2.884382D-01

 Vector  124  Occ=0.000000D+00  E= 3.008432D-01

 Vector  125  Occ=0.000000D+00  E= 3.021135D-01

 Vector  126  Occ=0.000000D+00  E= 3.087713D-01

 Vector  127  Occ=0.000000D+00  E= 3.143611D-01

 Vector  128  Occ=0.000000D+00  E= 3.170059D-01

 Vector  129  Occ=0.000000D+00  E= 3.245204D-01

 Vector  130  Occ=0.000000D+00  E= 3.260674D-01

 Vector  131  Occ=0.000000D+00  E= 3.311753D-01

 Vector  132  Occ=0.000000D+00  E= 3.332260D-01

 Vector  133  Occ=0.000000D+00  E= 3.451178D-01

 Vector  134  Occ=0.000000D+00  E= 3.492987D-01

 Vector  135  Occ=0.000000D+00  E= 3.542536D-01

 Vector  136  Occ=0.000000D+00  E= 3.582245D-01

 Vector  137  Occ=0.000000D+00  E= 3.638435D-01

 Vector  138  Occ=0.000000D+00  E= 3.644733D-01

 Vector  139  Occ=0.000000D+00  E= 3.725032D-01

 Vector  140  Occ=0.000000D+00  E= 3.728009D-01

 Vector  141  Occ=0.000000D+00  E= 3.795706D-01

 Vector  142  Occ=0.000000D+00  E= 3.812582D-01

 Vector  143  Occ=0.000000D+00  E= 3.852253D-01

 Vector  144  Occ=0.000000D+00  E= 3.900149D-01

 Vector  145  Occ=0.000000D+00  E= 3.914897D-01

 Vector  146  Occ=0.000000D+00  E= 3.983477D-01

 Vector  147  Occ=0.000000D+00  E= 3.987685D-01

 Vector  148  Occ=0.000000D+00  E= 3.997573D-01

 Vector  149  Occ=0.000000D+00  E= 4.038612D-01

 Vector  150  Occ=0.000000D+00  E= 4.099969D-01

 Vector  151  Occ=0.000000D+00  E= 4.117132D-01

 Vector  152  Occ=0.000000D+00  E= 4.150711D-01

 Vector  153  Occ=0.000000D+00  E= 4.194372D-01

 Vector  154  Occ=0.000000D+00  E= 4.223848D-01

 Vector  155  Occ=0.000000D+00  E= 4.272515D-01

 Vector  156  Occ=0.000000D+00  E= 4.303152D-01

 Vector  157  Occ=0.000000D+00  E= 4.381407D-01

 Vector  158  Occ=0.000000D+00  E= 4.414384D-01

 Vector  159  Occ=0.000000D+00  E= 4.433703D-01

 Vector  160  Occ=0.000000D+00  E= 4.471199D-01

 Vector  161  Occ=0.000000D+00  E= 4.536202D-01

 Vector  162  Occ=0.000000D+00  E= 4.575920D-01

 Vector  163  Occ=0.000000D+00  E= 4.616482D-01

 Vector  164  Occ=0.000000D+00  E= 4.663781D-01

 Vector  165  Occ=0.000000D+00  E= 4.681261D-01

 Vector  166  Occ=0.000000D+00  E= 4.716458D-01

 Vector  167  Occ=0.000000D+00  E= 4.776542D-01

 Vector  168  Occ=0.000000D+00  E= 4.794496D-01

 Vector  169  Occ=0.000000D+00  E= 4.815557D-01

 Vector  170  Occ=0.000000D+00  E= 4.946220D-01

 Vector  171  Occ=0.000000D+00  E= 4.978094D-01

 Vector  172  Occ=0.000000D+00  E= 5.011997D-01

       Multipole analysis of the density wrt the origin
       ------------------------------------------------

     L   x y z        total         open         nuclear
     -   - - -        -----         ----         -------
     0   0 0 0      0.000000      0.000000    124.000000

     1   1 0 0     -0.386844      0.000000     -0.000000
     1   0 1 0     -2.500222      0.000000     -0.000000
     1   0 0 1     -2.117139      0.000000     -0.000000

     2   2 0 0    -72.120677      0.000000    882.466426
     2   1 1 0      0.544355      0.000000      6.127770
     2   1 0 1     -3.677876      0.000000    -11.624557
     2   0 2 0    -69.256596      0.000000   1996.234802
     2   0 1 1     -0.553739      0.000000     -6.869900

 Total times  cpu:     4525.3s     wall:     4673.9s
