 Output coordinates in angstroms (scale by  1.889725989 to convert to a.u.)

  No.       Tag          Charge          X              Y              Z
 ---- ---------------- ---------- -------------- -------------- --------------
    1 H                    1.0000     1.31723904    -4.43957255     1.62584800
    2 C                    6.0000     0.63512249    -4.31426816     0.78575228
    3 H                    1.0000    -0.36446977    -4.63097748     1.07951328
    4 H                    1.0000     0.98202559    -4.90482522    -0.05953442
    5 C                    6.0000     0.59767406    -2.85472574     0.39867409
    6 O                    8.0000     1.26642524    -2.03537102     1.01660426
    7 N                    7.0000    -0.18370044    -2.52718841    -0.62850369
    8 H                    1.0000    -0.73649082    -3.24805331    -1.05843693
    9 C                    6.0000    -0.40399604    -1.14369865    -1.05182972
   10 H                    1.0000     0.57170333    -0.69923143    -1.24353168
   11 C                    6.0000    -1.19049432    -1.15470134    -2.36945956
   12 H                    1.0000    -2.16848715    -1.61431864    -2.21352373
   13 H                    1.0000    -1.33312641    -0.13438458    -2.72481683
   14 H                    1.0000    -0.64209002    -1.71726074    -3.12531249
   15 C                    6.0000    -1.13160430    -0.32283147     0.04307634
   16 O                    8.0000    -1.99620625    -0.87260211     0.72718722
   17 N                    7.0000    -0.84151845     0.98542848     0.20396795
   18 C                    6.0000    -1.52048869     1.81305882     1.19369035
   19 H                    1.0000    -1.42604427     1.38735819     2.19424032
   20 H                    1.0000    -2.57445981     1.90272898     0.92641868
   21 C                    6.0000    -0.85362572     3.18643289     1.13427275
   22 H                    1.0000    -0.00080811     3.21326794     1.81370193
   23 H                    1.0000    -1.55625667     3.98829272     1.36321066
   24 C                    6.0000    -0.36663586     3.25179437    -0.31162411
   25 H                    1.0000     0.44055636     3.97442146    -0.43495628
   26 H                    1.0000    -1.20195990     3.50788907    -0.96548514
   27 C                    6.0000     0.07866646     1.81009456    -0.59131413
   28 H                    1.0000    -0.05573756     1.60609049    -1.65310314
   29 C                    6.0000     1.57604969     1.62695651    -0.26647126
   30 O                    8.0000     2.41662628     2.23912752    -0.91004850
   31 N                    7.0000     1.95441749     0.80600695     0.70348783
   32 H                    1.0000     1.28475745     0.22719676     1.19059273
   33 H                    1.0000     2.94048982     0.69374342     0.87396439

         Total SCF energy =   -776.683350982116

 Vector   93  Occ=0.000000D+00  E= 1.682168D-01

 Vector   94  Occ=0.000000D+00  E= 1.705080D-01

 Vector   95  Occ=0.000000D+00  E= 1.747077D-01

 Vector   96  Occ=0.000000D+00  E= 1.754818D-01

 Vector   97  Occ=0.000000D+00  E= 1.779863D-01

 Vector   98  Occ=0.000000D+00  E= 1.842441D-01

 Vector   99  Occ=0.000000D+00  E= 1.845569D-01

 Vector  100  Occ=0.000000D+00  E= 1.883715D-01

 Vector  101  Occ=0.000000D+00  E= 1.902592D-01

 Vector  102  Occ=0.000000D+00  E= 1.911638D-01

 Vector  103  Occ=0.000000D+00  E= 1.980666D-01

 Vector  104  Occ=0.000000D+00  E= 1.995368D-01

 Vector  105  Occ=0.000000D+00  E= 2.039391D-01

 Vector  106  Occ=0.000000D+00  E= 2.083436D-01

 Vector  107  Occ=0.000000D+00  E= 2.105308D-01

 Vector  108  Occ=0.000000D+00  E= 2.140771D-01

 Vector  109  Occ=0.000000D+00  E= 2.206535D-01

 Vector  110  Occ=0.000000D+00  E= 2.264444D-01

 Vector  111  Occ=0.000000D+00  E= 2.290471D-01

 Vector  112  Occ=0.000000D+00  E= 2.319094D-01

 Vector  113  Occ=0.000000D+00  E= 2.372546D-01

 Vector  114  Occ=0.000000D+00  E= 2.428656D-01

 Vector  115  Occ=0.000000D+00  E= 2.541109D-01

 Vector  116  Occ=0.000000D+00  E= 2.572491D-01

 Vector  117  Occ=0.000000D+00  E= 2.629163D-01

 Vector  118  Occ=0.000000D+00  E= 2.677042D-01

 Vector  119  Occ=0.000000D+00  E= 2.737447D-01

 Vector  120  Occ=0.000000D+00  E= 2.803844D-01

 Vector  121  Occ=0.000000D+00  E= 2.870135D-01

 Vector  122  Occ=0.000000D+00  E= 2.960486D-01

 Vector  123  Occ=0.000000D+00  E= 2.994259D-01

 Vector  124  Occ=0.000000D+00  E= 3.067261D-01

 Vector  125  Occ=0.000000D+00  E= 3.128197D-01

 Vector  126  Occ=0.000000D+00  E= 3.177956D-01

 Vector  127  Occ=0.000000D+00  E= 3.241981D-01

 Vector  128  Occ=0.000000D+00  E= 3.294906D-01

 Vector  129  Occ=0.000000D+00  E= 3.342519D-01

 Vector  130  Occ=0.000000D+00  E= 3.352508D-01

 Vector  131  Occ=0.000000D+00  E= 3.412800D-01

 Vector  132  Occ=0.000000D+00  E= 3.444901D-01

 Vector  133  Occ=0.000000D+00  E= 3.513179D-01

 Vector  134  Occ=0.000000D+00  E= 3.558057D-01

 Vector  135  Occ=0.000000D+00  E= 3.594551D-01

 Vector  136  Occ=0.000000D+00  E= 3.666208D-01

 Vector  137  Occ=0.000000D+00  E= 3.677660D-01

 Vector  138  Occ=0.000000D+00  E= 3.700519D-01

 Vector  139  Occ=0.000000D+00  E= 3.764567D-01

 Vector  140  Occ=0.000000D+00  E= 3.789072D-01

 Vector  141  Occ=0.000000D+00  E= 3.801835D-01

 Vector  142  Occ=0.000000D+00  E= 3.873913D-01

 Vector  143  Occ=0.000000D+00  E= 3.883286D-01

 Vector  144  Occ=0.000000D+00  E= 3.900237D-01

 Vector  145  Occ=0.000000D+00  E= 3.992813D-01

 Vector  146  Occ=0.000000D+00  E= 4.022458D-01

 Vector  147  Occ=0.000000D+00  E= 4.076995D-01

 Vector  148  Occ=0.000000D+00  E= 4.086938D-01

 Vector  149  Occ=0.000000D+00  E= 4.142579D-01

 Vector  150  Occ=0.000000D+00  E= 4.178415D-01

 Vector  151  Occ=0.000000D+00  E= 4.202276D-01

 Vector  152  Occ=0.000000D+00  E= 4.234343D-01

 Vector  153  Occ=0.000000D+00  E= 4.258073D-01

 Vector  154  Occ=0.000000D+00  E= 4.312373D-01

 Vector  155  Occ=0.000000D+00  E= 4.324228D-01

 Vector  156  Occ=0.000000D+00  E= 4.350943D-01

 Vector  157  Occ=0.000000D+00  E= 4.388531D-01

 Vector  158  Occ=0.000000D+00  E= 4.411201D-01

 Vector  159  Occ=0.000000D+00  E= 4.438717D-01

 Vector  160  Occ=0.000000D+00  E= 4.458385D-01

 Vector  161  Occ=0.000000D+00  E= 4.522539D-01

 Vector  162  Occ=0.000000D+00  E= 4.552354D-01

 Vector  163  Occ=0.000000D+00  E= 4.644045D-01

 Vector  164  Occ=0.000000D+00  E= 4.670921D-01

 Vector  165  Occ=0.000000D+00  E= 4.718951D-01

 Vector  166  Occ=0.000000D+00  E= 4.758490D-01

 Vector  167  Occ=0.000000D+00  E= 4.828894D-01

 Vector  168  Occ=0.000000D+00  E= 4.883902D-01

 Vector  169  Occ=0.000000D+00  E= 4.921640D-01

 Vector  170  Occ=0.000000D+00  E= 4.959161D-01

 Vector  171  Occ=0.000000D+00  E= 4.987288D-01

 Vector  172  Occ=0.000000D+00  E= 5.035703D-01

       Multipole analysis of the density wrt the origin
       ------------------------------------------------

     L   x y z        total         open         nuclear
     -   - - -        -----         ----         -------
     0   0 0 0      0.000000      0.000000    122.000000

     1   1 0 0     -1.006102      0.000000     -0.000000
     1   0 1 0     -0.763716      0.000000     -0.000000
     1   0 0 1     -0.641002      0.000000      0.000000

     2   2 0 0    -82.057251      0.000000    759.557098
     2   1 1 0     -8.573185      0.000000    -27.413307
     2   1 0 1      7.201339      0.000000     17.276777
     2   0 2 0    -61.403837      0.000000   2274.363218
     2   0 1 1      8.257363      0.000000     19.211329

 Total times  cpu:     4485.5s     wall:     4554.2s
