 Output coordinates in angstroms (scale by  1.889725989 to convert to a.u.)

  No.       Tag          Charge          X              Y              Z
 ---- ---------------- ---------- -------------- -------------- --------------
    1 H                    1.0000    -0.04368028    -6.35540416     0.74621100
    2 C                    6.0000    -0.48145929    -6.04169387    -0.20017654
    3 H                    1.0000    -1.36136853    -6.64779873    -0.41474038
    4 H                    1.0000     0.24418139    -6.15458955    -1.00194407
    5 C                    6.0000    -0.89885278    -4.59361955    -0.10151830
    6 O                    8.0000    -2.07085320    -4.27914492    -0.25775438
    7 N                    7.0000     0.06642814    -3.71192092     0.15184958
    8 H                    1.0000     1.01621766    -4.04428385     0.22686790
    9 C                    6.0000    -0.13593024    -2.26720996     0.25937314
   10 H                    1.0000    -0.94613966    -1.97399447    -0.41103151
   11 C                    6.0000    -0.55365408    -1.92507039     1.69745148
   12 H                    1.0000    -0.75141444    -0.85609453     1.78450574
   13 H                    1.0000    -1.46424533    -2.46838985     1.95482578
   14 H                    1.0000     0.23914296    -2.20194467     2.39360052
   15 C                    6.0000     1.12699407    -1.49368496    -0.16152738
   16 O                    8.0000     2.22507888    -2.04712875    -0.19888681
   17 N                    7.0000     0.97145656    -0.20048924    -0.44786793
   18 H                    1.0000     0.04824371     0.19324235    -0.33671277
   19 C                    6.0000     2.02008222     0.73161230    -0.89808672
   20 H                    1.0000     2.63222325     0.22259853    -1.64276406
   21 C                    6.0000     1.32744775     1.91919623    -1.59101307
   22 H                    1.0000     2.07825942     2.64153135    -1.91366273
   23 H                    1.0000     0.83654779     1.55072361    -2.49324594
   24 C                    6.0000     0.29363782     2.61694257    -0.75763196
   25 C                    6.0000     0.52152927     3.68500143     0.03744399
   26 H                    1.0000     1.48533333     4.17541282     0.14310568
   27 N                    7.0000    -0.63364719     4.01450630     0.71860688
   28 H                    1.0000    -0.69029457     4.77806937     1.37603484
   29 C                    6.0000    -1.66480619     3.15115490     0.41513453
   30 C                    6.0000    -2.98889093     3.04442997     0.86449674
   31 H                    1.0000    -3.37651073     3.73901971     1.59475970
   32 C                    6.0000    -3.80286190     2.01947359     0.35160330
   33 H                    1.0000    -4.82722709     1.92087237     0.68614740
   34 C                    6.0000    -3.28695348     1.12493984    -0.60324688
   35 H                    1.0000    -3.92174224     0.34394328    -1.00130417
   36 C                    6.0000    -1.95655709     1.24356674    -1.05026263
   37 H                    1.0000    -1.58352624     0.56096116    -1.79908745
   38 C                    6.0000    -1.10828370     2.25505401    -0.54555007
   39 C                    6.0000     2.99472662     1.17713104     0.21926521
   40 O                    8.0000     3.43511520     2.31988770     0.27481819
   41 N                    7.0000     3.34219392     0.29922176     1.14992721
   42 H                    1.0000     3.97488280     0.59391022     1.87497996
   43 H                    1.0000     3.03436137    -0.65926583     1.06589948

         Total SCF energy =  -1060.130006017457

 Vector  150  Occ=0.000000D+00  E= 2.358948D-01

 Vector  151  Occ=0.000000D+00  E= 2.376419D-01

 Vector  152  Occ=0.000000D+00  E= 2.416560D-01

 Vector  153  Occ=0.000000D+00  E= 2.474209D-01

 Vector  154  Occ=0.000000D+00  E= 2.504721D-01

 Vector  155  Occ=0.000000D+00  E= 2.565581D-01

 Vector  156  Occ=0.000000D+00  E= 2.588989D-01

 Vector  157  Occ=0.000000D+00  E= 2.631407D-01

 Vector  158  Occ=0.000000D+00  E= 2.672090D-01

 Vector  159  Occ=0.000000D+00  E= 2.720287D-01

 Vector  160  Occ=0.000000D+00  E= 2.753418D-01

 Vector  161  Occ=0.000000D+00  E= 2.782748D-01

 Vector  162  Occ=0.000000D+00  E= 2.821912D-01

 Vector  163  Occ=0.000000D+00  E= 2.876183D-01

 Vector  164  Occ=0.000000D+00  E= 2.908511D-01

 Vector  165  Occ=0.000000D+00  E= 2.953591D-01

 Vector  166  Occ=0.000000D+00  E= 2.957138D-01

 Vector  167  Occ=0.000000D+00  E= 3.002026D-01

 Vector  168  Occ=0.000000D+00  E= 3.050828D-01

 Vector  169  Occ=0.000000D+00  E= 3.074212D-01

 Vector  170  Occ=0.000000D+00  E= 3.121723D-01

 Vector  171  Occ=0.000000D+00  E= 3.132828D-01

 Vector  172  Occ=0.000000D+00  E= 3.151384D-01

 Vector  173  Occ=0.000000D+00  E= 3.198133D-01

 Vector  174  Occ=0.000000D+00  E= 3.233873D-01

 Vector  175  Occ=0.000000D+00  E= 3.292750D-01

 Vector  176  Occ=0.000000D+00  E= 3.323420D-01

 Vector  177  Occ=0.000000D+00  E= 3.361439D-01

 Vector  178  Occ=0.000000D+00  E= 3.406865D-01

 Vector  179  Occ=0.000000D+00  E= 3.422658D-01

 Vector  180  Occ=0.000000D+00  E= 3.441681D-01

 Vector  181  Occ=0.000000D+00  E= 3.466401D-01

 Vector  182  Occ=0.000000D+00  E= 3.489185D-01

 Vector  183  Occ=0.000000D+00  E= 3.551216D-01

 Vector  184  Occ=0.000000D+00  E= 3.580422D-01

 Vector  185  Occ=0.000000D+00  E= 3.605252D-01

 Vector  186  Occ=0.000000D+00  E= 3.642822D-01

 Vector  187  Occ=0.000000D+00  E= 3.645969D-01

 Vector  188  Occ=0.000000D+00  E= 3.689289D-01

 Vector  189  Occ=0.000000D+00  E= 3.724139D-01

 Vector  190  Occ=0.000000D+00  E= 3.741381D-01

 Vector  191  Occ=0.000000D+00  E= 3.761635D-01

 Vector  192  Occ=0.000000D+00  E= 3.800222D-01

 Vector  193  Occ=0.000000D+00  E= 3.840744D-01

 Vector  194  Occ=0.000000D+00  E= 3.876023D-01

 Vector  195  Occ=0.000000D+00  E= 3.908143D-01

 Vector  196  Occ=0.000000D+00  E= 3.937430D-01

 Vector  197  Occ=0.000000D+00  E= 3.963763D-01

 Vector  198  Occ=0.000000D+00  E= 4.002391D-01

 Vector  199  Occ=0.000000D+00  E= 4.005574D-01

 Vector  200  Occ=0.000000D+00  E= 4.046194D-01

 Vector  201  Occ=0.000000D+00  E= 4.058418D-01

 Vector  202  Occ=0.000000D+00  E= 4.097558D-01

 Vector  203  Occ=0.000000D+00  E= 4.117408D-01

 Vector  204  Occ=0.000000D+00  E= 4.169029D-01

 Vector  205  Occ=0.000000D+00  E= 4.182936D-01

 Vector  206  Occ=0.000000D+00  E= 4.212553D-01

 Vector  207  Occ=0.000000D+00  E= 4.264350D-01

 Vector  208  Occ=0.000000D+00  E= 4.286169D-01

 Vector  209  Occ=0.000000D+00  E= 4.319465D-01

 Vector  210  Occ=0.000000D+00  E= 4.353738D-01

 Vector  211  Occ=0.000000D+00  E= 4.366428D-01

 Vector  212  Occ=0.000000D+00  E= 4.381845D-01

 Vector  213  Occ=0.000000D+00  E= 4.469370D-01

 Vector  214  Occ=0.000000D+00  E= 4.481554D-01

 Vector  215  Occ=0.000000D+00  E= 4.502882D-01

 Vector  216  Occ=0.000000D+00  E= 4.535991D-01

 Vector  217  Occ=0.000000D+00  E= 4.545124D-01

 Vector  218  Occ=0.000000D+00  E= 4.584443D-01

 Vector  219  Occ=0.000000D+00  E= 4.644650D-01

 Vector  220  Occ=0.000000D+00  E= 4.665851D-01

 Vector  221  Occ=0.000000D+00  E= 4.678257D-01

 Vector  222  Occ=0.000000D+00  E= 4.703150D-01

 Vector  223  Occ=0.000000D+00  E= 4.757565D-01

 Vector  224  Occ=0.000000D+00  E= 4.821573D-01

 Vector  225  Occ=0.000000D+00  E= 4.827063D-01

 Vector  226  Occ=0.000000D+00  E= 4.850826D-01

 Vector  227  Occ=0.000000D+00  E= 4.920762D-01

 Vector  228  Occ=0.000000D+00  E= 4.968670D-01

 Vector  229  Occ=0.000000D+00  E= 5.001322D-01

       Multipole analysis of the density wrt the origin
       ------------------------------------------------

     L   x y z        total         open         nuclear
     -   - - -        -----         ----         -------
     0   0 0 0     -0.000000      0.000000    168.000000

     1   1 0 0      0.102071      0.000000     -0.000000
     1   0 1 0      0.354543      0.000000     -0.000000
     1   0 0 1      0.796335      0.000000     -0.000000

     2   2 0 0   -113.745408      0.000000   2548.965507
     2   1 1 0    -13.771372      0.000000     -7.073335
     2   1 0 1     -1.365559      0.000000     -9.092123
     2   0 2 0    -94.791319      0.000000   5040.814740
     2   0 1 1      2.928587      0.000000     -6.169069

 Total times  cpu:    11570.6s     wall:    11775.1s
