 Output coordinates in angstroms (scale by  1.889725989 to convert to a.u.)

  No.       Tag          Charge          X              Y              Z
 ---- ---------------- ---------- -------------- -------------- --------------
    1 H                    1.0000    -1.85910516    -4.26634645     1.31334405
    2 C                    6.0000    -2.06162651    -3.19755123     1.36468482
    3 H                    1.0000    -1.88054940    -2.83103832     2.37348825
    4 H                    1.0000    -3.10057962    -3.01326543     1.09209504
    5 C                    6.0000    -1.16339006    -2.46869807     0.39409718
    6 O                    8.0000    -1.65632398    -1.80579671    -0.50815773
    7 N                    7.0000     0.15003748    -2.59829986     0.59566972
    8 H                    1.0000     0.41972064    -3.17947257     1.37213303
    9 C                    6.0000     1.25725389    -2.00410856    -0.17813744
   10 H                    1.0000     2.17772156    -2.30555484     0.32479040
   11 C                    6.0000     1.30465206    -2.64594361    -1.57253881
   12 H                    1.0000     1.34551417    -3.73227753    -1.48387713
   13 H                    1.0000     0.42215451    -2.36508578    -2.14888589
   14 H                    1.0000     2.19451652    -2.30152003    -2.10183991
   15 C                    6.0000     1.32564609    -0.45889456    -0.23938439
   16 O                    8.0000     2.41278068     0.09597088    -0.10412268
   17 N                    7.0000     0.20052721     0.24220264    -0.39960678
   18 H                    1.0000    -0.65224439    -0.29536369    -0.52113054
   19 C                    6.0000     0.09186876     1.70814893    -0.49627544
   20 H                    1.0000     0.89705438     2.05967207    -1.14235021
   21 C                    6.0000    -1.23191101     2.06494317    -1.18868137
   22 H                    1.0000    -1.27698567     1.56920572    -2.15923104
   23 H                    1.0000    -2.06919724     1.72237527    -0.57847239
   24 O                    8.0000    -1.33117899     3.45999987    -1.37979306
   25 H                    1.0000    -1.34337976     3.85966622    -0.49650661
   26 C                    6.0000     0.26377649     2.43259587     0.85683186
   27 O                    8.0000    -0.56001732     3.24858222     1.26169237
   28 N                    7.0000     1.31477763     2.13211862     1.60594067
   29 H                    1.0000     1.43122763     2.60121572     2.48769365
   30 H                    1.0000     1.99703421     1.47263817     1.25419430

         Total SCF energy =   -774.650459691782

 Vector   82  Occ=0.000000D+00  E= 1.467696D-01

 Vector   83  Occ=0.000000D+00  E= 1.508847D-01

 Vector   84  Occ=0.000000D+00  E= 1.519644D-01

 Vector   85  Occ=0.000000D+00  E= 1.544152D-01

 Vector   86  Occ=0.000000D+00  E= 1.588490D-01

 Vector   87  Occ=0.000000D+00  E= 1.649993D-01

 Vector   88  Occ=0.000000D+00  E= 1.698235D-01

 Vector   89  Occ=0.000000D+00  E= 1.725225D-01

 Vector   90  Occ=0.000000D+00  E= 1.759857D-01

 Vector   91  Occ=0.000000D+00  E= 1.770077D-01

 Vector   92  Occ=0.000000D+00  E= 1.816321D-01

 Vector   93  Occ=0.000000D+00  E= 1.838925D-01

 Vector   94  Occ=0.000000D+00  E= 1.893201D-01

 Vector   95  Occ=0.000000D+00  E= 1.947813D-01

 Vector   96  Occ=0.000000D+00  E= 1.975810D-01

 Vector   97  Occ=0.000000D+00  E= 2.006733D-01

 Vector   98  Occ=0.000000D+00  E= 2.017456D-01

 Vector   99  Occ=0.000000D+00  E= 2.052815D-01

 Vector  100  Occ=0.000000D+00  E= 2.132928D-01

 Vector  101  Occ=0.000000D+00  E= 2.161634D-01

 Vector  102  Occ=0.000000D+00  E= 2.201389D-01

 Vector  103  Occ=0.000000D+00  E= 2.262100D-01

 Vector  104  Occ=0.000000D+00  E= 2.347805D-01

 Vector  105  Occ=0.000000D+00  E= 2.415255D-01

 Vector  106  Occ=0.000000D+00  E= 2.428239D-01

 Vector  107  Occ=0.000000D+00  E= 2.494941D-01

 Vector  108  Occ=0.000000D+00  E= 2.540921D-01

 Vector  109  Occ=0.000000D+00  E= 2.576816D-01

 Vector  110  Occ=0.000000D+00  E= 2.605476D-01

 Vector  111  Occ=0.000000D+00  E= 2.739335D-01

 Vector  112  Occ=0.000000D+00  E= 2.799731D-01

 Vector  113  Occ=0.000000D+00  E= 2.818021D-01

 Vector  114  Occ=0.000000D+00  E= 2.925993D-01

 Vector  115  Occ=0.000000D+00  E= 2.955430D-01

 Vector  116  Occ=0.000000D+00  E= 3.029081D-01

 Vector  117  Occ=0.000000D+00  E= 3.123910D-01

 Vector  118  Occ=0.000000D+00  E= 3.141883D-01

 Vector  119  Occ=0.000000D+00  E= 3.257181D-01

 Vector  120  Occ=0.000000D+00  E= 3.303546D-01

 Vector  121  Occ=0.000000D+00  E= 3.331127D-01

 Vector  122  Occ=0.000000D+00  E= 3.353190D-01

 Vector  123  Occ=0.000000D+00  E= 3.363622D-01

 Vector  124  Occ=0.000000D+00  E= 3.389423D-01

 Vector  125  Occ=0.000000D+00  E= 3.467491D-01

 Vector  126  Occ=0.000000D+00  E= 3.477827D-01

 Vector  127  Occ=0.000000D+00  E= 3.550372D-01

 Vector  128  Occ=0.000000D+00  E= 3.557033D-01

 Vector  129  Occ=0.000000D+00  E= 3.620456D-01

 Vector  130  Occ=0.000000D+00  E= 3.685771D-01

 Vector  131  Occ=0.000000D+00  E= 3.713489D-01

 Vector  132  Occ=0.000000D+00  E= 3.748627D-01

 Vector  133  Occ=0.000000D+00  E= 3.807177D-01

 Vector  134  Occ=0.000000D+00  E= 3.833321D-01

 Vector  135  Occ=0.000000D+00  E= 3.846811D-01

 Vector  136  Occ=0.000000D+00  E= 3.896838D-01

 Vector  137  Occ=0.000000D+00  E= 3.968023D-01

 Vector  138  Occ=0.000000D+00  E= 4.005861D-01

 Vector  139  Occ=0.000000D+00  E= 4.025683D-01

 Vector  140  Occ=0.000000D+00  E= 4.088046D-01

 Vector  141  Occ=0.000000D+00  E= 4.150996D-01

 Vector  142  Occ=0.000000D+00  E= 4.165831D-01

 Vector  143  Occ=0.000000D+00  E= 4.250639D-01

 Vector  144  Occ=0.000000D+00  E= 4.256106D-01

 Vector  145  Occ=0.000000D+00  E= 4.320277D-01

 Vector  146  Occ=0.000000D+00  E= 4.356019D-01

 Vector  147  Occ=0.000000D+00  E= 4.389186D-01

 Vector  148  Occ=0.000000D+00  E= 4.473321D-01

 Vector  149  Occ=0.000000D+00  E= 4.530440D-01

 Vector  150  Occ=0.000000D+00  E= 4.585077D-01

 Vector  151  Occ=0.000000D+00  E= 4.606921D-01

 Vector  152  Occ=0.000000D+00  E= 4.658029D-01

 Vector  153  Occ=0.000000D+00  E= 4.688158D-01

 Vector  154  Occ=0.000000D+00  E= 4.750342D-01

 Vector  155  Occ=0.000000D+00  E= 4.787143D-01

 Vector  156  Occ=0.000000D+00  E= 4.808482D-01

 Vector  157  Occ=0.000000D+00  E= 4.829572D-01

 Vector  158  Occ=0.000000D+00  E= 4.860661D-01

 Vector  159  Occ=0.000000D+00  E= 4.939644D-01

 Vector  160  Occ=0.000000D+00  E= 4.995876D-01

 Vector  161  Occ=0.000000D+00  E= 5.022354D-01

       Multipole analysis of the density wrt the origin
       ------------------------------------------------

     L   x y z        total         open         nuclear
     -   - - -        -----         ----         -------
     0   0 0 0     -0.000000      0.000000    116.000000

     1   1 0 0      0.572501      0.000000     -0.000000
     1   0 1 0     -3.086754      0.000000      0.000000
     1   0 0 1      1.166026      0.000000      0.000000

     2   2 0 0    -72.427313      0.000000    765.973801
     2   1 1 0      3.841067      0.000000      5.606908
     2   1 0 1     -0.653198      0.000000    -11.546898
     2   0 2 0    -67.058575      0.000000   2281.406597
     2   0 1 1     -2.872826      0.000000     -9.622879

 Total times  cpu:     3378.6s     wall:     3446.7s
