 Output coordinates in angstroms (scale by  1.889725989 to convert to a.u.)

  No.       Tag          Charge          X              Y              Z
 ---- ---------------- ---------- -------------- -------------- --------------
    1 H                    1.0000    -3.74918438    -0.99614434    -1.49201325
    2 C                    6.0000    -2.70176560    -1.13624126    -1.23082992
    3 H                    1.0000    -2.20346868    -1.70568737    -2.01631341
    4 H                    1.0000    -2.62010914    -1.67653406    -0.29086134
    5 C                    6.0000    -2.03373052     0.21136766    -1.10616510
    6 O                    8.0000    -1.17916068     0.55408676    -1.91078614
    7 N                    7.0000    -2.40015134     0.97128051    -0.07347093
    8 H                    1.0000    -3.11381850     0.62053973     0.54291864
    9 C                    6.0000    -1.90783985     2.33803308     0.16174135
   10 H                    1.0000    -2.11176969     2.93054977    -0.73150586
   11 C                    6.0000    -2.71551183     2.93215834     1.32310915
   12 H                    1.0000    -2.52731011     2.37131961     2.23914083
   13 H                    1.0000    -2.41663147     3.97088541     1.47896356
   14 H                    1.0000    -3.78025488     2.90767363     1.09015268
   15 C                    6.0000    -0.38552316     2.45144783     0.42202578
   16 O                    8.0000     0.15341141     3.55350572     0.44254290
   17 N                    7.0000     0.30911231     1.32603326     0.60913431
   18 H                    1.0000    -0.19573885     0.45599688     0.54890142
   19 C                    6.0000     1.77297640     1.22908495     0.66526764
   20 H                    1.0000     2.16293884     2.07057530     1.24038179
   21 C                    6.0000     2.13962875    -0.07135953     1.40345475
   22 H                    1.0000     3.20521307    -0.27245154     1.28174174
   23 H                    1.0000     1.96919789     0.09016422     2.46907963
   24 C                    6.0000     1.34648449    -1.29404333     0.96607216
   25 C                    6.0000     0.31558253    -1.79455007     1.78763539
   26 H                    1.0000     0.11724348    -1.33184814     2.74495589
   27 C                    6.0000    -0.45093926    -2.90064151     1.37080679
   28 H                    1.0000    -1.23350709    -3.28630661     2.00442973
   29 C                    6.0000    -0.19121731    -3.50328748     0.11997853
   30 O                    8.0000    -0.93097347    -4.56350749    -0.29474954
   31 H                    1.0000    -1.42389591    -4.96545610     0.41999921
   32 C                    6.0000     0.83687424    -2.99988183    -0.70242010
   33 H                    1.0000     1.02740229    -3.46780490    -1.65756619
   34 C                    6.0000     1.60878371    -1.90284483    -0.27648161
   35 H                    1.0000     2.40371912    -1.52660474    -0.90900361
   36 C                    6.0000     2.45227266     1.29684094    -0.72051471
   37 O                    8.0000     3.67314596     1.34081774    -0.80750575
   38 N                    7.0000     1.71324423     1.28195711    -1.82438266
   39 H                    1.0000     0.70584997     1.20320686    -1.76823817
   40 H                    1.0000     2.18085031     1.33731064    -2.71222079

         Total SCF energy =  -1004.219274418697

 Vector  133  Occ=0.000000D+00  E= 2.116460D-01

 Vector  134  Occ=0.000000D+00  E= 2.193894D-01

 Vector  135  Occ=0.000000D+00  E= 2.197988D-01

 Vector  136  Occ=0.000000D+00  E= 2.238693D-01

 Vector  137  Occ=0.000000D+00  E= 2.260821D-01

 Vector  138  Occ=0.000000D+00  E= 2.294488D-01

 Vector  139  Occ=0.000000D+00  E= 2.323650D-01

 Vector  140  Occ=0.000000D+00  E= 2.367238D-01

 Vector  141  Occ=0.000000D+00  E= 2.427930D-01

 Vector  142  Occ=0.000000D+00  E= 2.445456D-01

 Vector  143  Occ=0.000000D+00  E= 2.513137D-01

 Vector  144  Occ=0.000000D+00  E= 2.534335D-01

 Vector  145  Occ=0.000000D+00  E= 2.615286D-01

 Vector  146  Occ=0.000000D+00  E= 2.648351D-01

 Vector  147  Occ=0.000000D+00  E= 2.706165D-01

 Vector  148  Occ=0.000000D+00  E= 2.750865D-01

 Vector  149  Occ=0.000000D+00  E= 2.809415D-01

 Vector  150  Occ=0.000000D+00  E= 2.833996D-01

 Vector  151  Occ=0.000000D+00  E= 2.885743D-01

 Vector  152  Occ=0.000000D+00  E= 2.906914D-01

 Vector  153  Occ=0.000000D+00  E= 2.976570D-01

 Vector  154  Occ=0.000000D+00  E= 3.000332D-01

 Vector  155  Occ=0.000000D+00  E= 3.033211D-01

 Vector  156  Occ=0.000000D+00  E= 3.063115D-01

 Vector  157  Occ=0.000000D+00  E= 3.109473D-01

 Vector  158  Occ=0.000000D+00  E= 3.126534D-01

 Vector  159  Occ=0.000000D+00  E= 3.188471D-01

 Vector  160  Occ=0.000000D+00  E= 3.220091D-01

 Vector  161  Occ=0.000000D+00  E= 3.246294D-01

 Vector  162  Occ=0.000000D+00  E= 3.253635D-01

 Vector  163  Occ=0.000000D+00  E= 3.329799D-01

 Vector  164  Occ=0.000000D+00  E= 3.363707D-01

 Vector  165  Occ=0.000000D+00  E= 3.409499D-01

 Vector  166  Occ=0.000000D+00  E= 3.411835D-01

 Vector  167  Occ=0.000000D+00  E= 3.477848D-01

 Vector  168  Occ=0.000000D+00  E= 3.511725D-01

 Vector  169  Occ=0.000000D+00  E= 3.533848D-01

 Vector  170  Occ=0.000000D+00  E= 3.611184D-01

 Vector  171  Occ=0.000000D+00  E= 3.618712D-01

 Vector  172  Occ=0.000000D+00  E= 3.668703D-01

 Vector  173  Occ=0.000000D+00  E= 3.710341D-01

 Vector  174  Occ=0.000000D+00  E= 3.733897D-01

 Vector  175  Occ=0.000000D+00  E= 3.764945D-01

 Vector  176  Occ=0.000000D+00  E= 3.801233D-01

 Vector  177  Occ=0.000000D+00  E= 3.826857D-01

 Vector  178  Occ=0.000000D+00  E= 3.849611D-01

 Vector  179  Occ=0.000000D+00  E= 3.857449D-01

 Vector  180  Occ=0.000000D+00  E= 3.879493D-01

 Vector  181  Occ=0.000000D+00  E= 3.939456D-01

 Vector  182  Occ=0.000000D+00  E= 3.959398D-01

 Vector  183  Occ=0.000000D+00  E= 4.007705D-01

 Vector  184  Occ=0.000000D+00  E= 4.054968D-01

 Vector  185  Occ=0.000000D+00  E= 4.092860D-01

 Vector  186  Occ=0.000000D+00  E= 4.104312D-01

 Vector  187  Occ=0.000000D+00  E= 4.137738D-01

 Vector  188  Occ=0.000000D+00  E= 4.143704D-01

 Vector  189  Occ=0.000000D+00  E= 4.179311D-01

 Vector  190  Occ=0.000000D+00  E= 4.202694D-01

 Vector  191  Occ=0.000000D+00  E= 4.287718D-01

 Vector  192  Occ=0.000000D+00  E= 4.325769D-01

 Vector  193  Occ=0.000000D+00  E= 4.334610D-01

 Vector  194  Occ=0.000000D+00  E= 4.348147D-01

 Vector  195  Occ=0.000000D+00  E= 4.371456D-01

 Vector  196  Occ=0.000000D+00  E= 4.407590D-01

 Vector  197  Occ=0.000000D+00  E= 4.427633D-01

 Vector  198  Occ=0.000000D+00  E= 4.437310D-01

 Vector  199  Occ=0.000000D+00  E= 4.523448D-01

 Vector  200  Occ=0.000000D+00  E= 4.551019D-01

 Vector  201  Occ=0.000000D+00  E= 4.606218D-01

 Vector  202  Occ=0.000000D+00  E= 4.636721D-01

 Vector  203  Occ=0.000000D+00  E= 4.680135D-01

 Vector  204  Occ=0.000000D+00  E= 4.706315D-01

 Vector  205  Occ=0.000000D+00  E= 4.742072D-01

 Vector  206  Occ=0.000000D+00  E= 4.772591D-01

 Vector  207  Occ=0.000000D+00  E= 4.805124D-01

 Vector  208  Occ=0.000000D+00  E= 4.827723D-01

 Vector  209  Occ=0.000000D+00  E= 4.854407D-01

 Vector  210  Occ=0.000000D+00  E= 4.895649D-01

 Vector  211  Occ=0.000000D+00  E= 4.968853D-01

 Vector  212  Occ=0.000000D+00  E= 5.004075D-01

       Multipole analysis of the density wrt the origin
       ------------------------------------------------

     L   x y z        total         open         nuclear
     -   - - -        -----         ----         -------
     0   0 0 0     -0.000000      0.000000    156.000000

     1   1 0 0     -3.382008      0.000000      0.000000
     1   0 1 0     -1.952717      0.000000      0.000000
     1   0 0 1      1.349034      0.000000      0.000000

     2   2 0 0    -94.761065      0.000000   1926.000931
     2   1 1 0     -5.199676      0.000000    -20.418045
     2   1 0 1     -2.601101      0.000000     -9.077436
     2   0 2 0   -102.157039      0.000000   2844.927183
     2   0 1 1     -2.130826      0.000000     17.171499

 Total times  cpu:    21542.1s     wall:    21646.5s
