 Output coordinates in angstroms (scale by  1.889725989 to convert to a.u.)

  No.       Tag          Charge          X              Y              Z
 ---- ---------------- ---------- -------------- -------------- --------------
    1 H                    1.0000    -3.37060511     0.65386352     0.22537283
    2 C                    6.0000    -3.19937185     1.12832250    -0.73950688
    3 H                    1.0000    -3.83360190     2.00698026    -0.84069379
    4 H                    1.0000    -3.42103406     0.42311185    -1.54018334
    5 C                    6.0000    -1.75215157     1.54292566    -0.84266540
    6 O                    8.0000    -1.06053992     1.14652291    -1.77194801
    7 N                    7.0000    -1.28660252     2.33373057     0.12435356
    8 H                    1.0000    -1.91672682     2.60266019     0.86108773
    9 C                    6.0000     0.07564232     2.88336054     0.15410079
   10 H                    1.0000     0.25325099     3.40530936    -0.78784273
   11 C                    6.0000     0.14299476     3.91022416     1.29173550
   12 H                    1.0000     1.12835989     4.37950753     1.29856743
   13 H                    1.0000    -0.61168704     4.68290424     1.14393199
   14 H                    1.0000    -0.02079269     3.41817971     2.25189171
   15 C                    6.0000     1.19573078     1.82504499     0.28682621
   16 O                    8.0000     2.36613406     2.14435884     0.09826104
   17 N                    7.0000     0.85127528     0.57263078     0.59751426
   18 H                    1.0000    -0.13116721     0.36648937     0.72665941
   19 C                    6.0000     1.75870636    -0.58068375     0.59478847
   20 H                    1.0000     2.72087129    -0.28234362     1.01241129
   21 C                    6.0000     1.14247291    -1.66749822     1.48793550
   22 H                    1.0000     1.83299577    -2.50922002     1.55686017
   23 H                    1.0000     1.00247366    -1.26842271     2.49305089
   24 C                    6.0000    -0.18892351    -2.16233141     0.97572099
   25 N                    7.0000    -1.39999458    -1.46640935     1.05733202
   26 C                    6.0000    -2.29842752    -2.22844844     0.41633617
   27 H                    1.0000    -3.34419429    -1.97469186     0.29841478
   28 N                    7.0000    -1.71907142    -3.34024485    -0.06694352
   29 H                    1.0000    -2.18332137    -4.05905037    -0.60366096
   30 C                    6.0000    -0.38546224    -3.31254503     0.27087338
   31 H                    1.0000     0.37901540    -4.03290810     0.00561882
   32 C                    6.0000     2.04177228    -1.14207649    -0.81242896
   33 O                    8.0000     2.84539396    -2.05638855    -0.95782720
   34 N                    7.0000     1.38695865    -0.65656462    -1.86134665
   35 H                    1.0000     0.69125818     0.06683573    -1.73821344
   36 H                    1.0000     1.59114628    -1.03491542    -2.76982179

         Total SCF energy =   -923.477200831790

 Vector  113  Occ=0.000000D+00  E= 1.901605D-01

 Vector  114  Occ=0.000000D+00  E= 1.931631D-01

 Vector  115  Occ=0.000000D+00  E= 1.974633D-01

 Vector  116  Occ=0.000000D+00  E= 1.996051D-01

 Vector  117  Occ=0.000000D+00  E= 2.015009D-01

 Vector  118  Occ=0.000000D+00  E= 2.038246D-01

 Vector  119  Occ=0.000000D+00  E= 2.078289D-01

 Vector  120  Occ=0.000000D+00  E= 2.085407D-01

 Vector  121  Occ=0.000000D+00  E= 2.151133D-01

 Vector  122  Occ=0.000000D+00  E= 2.186509D-01

 Vector  123  Occ=0.000000D+00  E= 2.223638D-01

 Vector  124  Occ=0.000000D+00  E= 2.249245D-01

 Vector  125  Occ=0.000000D+00  E= 2.298034D-01

 Vector  126  Occ=0.000000D+00  E= 2.343646D-01

 Vector  127  Occ=0.000000D+00  E= 2.379725D-01

 Vector  128  Occ=0.000000D+00  E= 2.420143D-01

 Vector  129  Occ=0.000000D+00  E= 2.498807D-01

 Vector  130  Occ=0.000000D+00  E= 2.503447D-01

 Vector  131  Occ=0.000000D+00  E= 2.560455D-01

 Vector  132  Occ=0.000000D+00  E= 2.581250D-01

 Vector  133  Occ=0.000000D+00  E= 2.649807D-01

 Vector  134  Occ=0.000000D+00  E= 2.670938D-01

 Vector  135  Occ=0.000000D+00  E= 2.771761D-01

 Vector  136  Occ=0.000000D+00  E= 2.832848D-01

 Vector  137  Occ=0.000000D+00  E= 2.856057D-01

 Vector  138  Occ=0.000000D+00  E= 2.895171D-01

 Vector  139  Occ=0.000000D+00  E= 2.917825D-01

 Vector  140  Occ=0.000000D+00  E= 2.965501D-01

 Vector  141  Occ=0.000000D+00  E= 2.996452D-01

 Vector  142  Occ=0.000000D+00  E= 3.067950D-01

 Vector  143  Occ=0.000000D+00  E= 3.098184D-01

 Vector  144  Occ=0.000000D+00  E= 3.159373D-01

 Vector  145  Occ=0.000000D+00  E= 3.220626D-01

 Vector  146  Occ=0.000000D+00  E= 3.271754D-01

 Vector  147  Occ=0.000000D+00  E= 3.327491D-01

 Vector  148  Occ=0.000000D+00  E= 3.354458D-01

 Vector  149  Occ=0.000000D+00  E= 3.399031D-01

 Vector  150  Occ=0.000000D+00  E= 3.429225D-01

 Vector  151  Occ=0.000000D+00  E= 3.448508D-01

 Vector  152  Occ=0.000000D+00  E= 3.551722D-01

 Vector  153  Occ=0.000000D+00  E= 3.591518D-01

 Vector  154  Occ=0.000000D+00  E= 3.611654D-01

 Vector  155  Occ=0.000000D+00  E= 3.653014D-01

 Vector  156  Occ=0.000000D+00  E= 3.694127D-01

 Vector  157  Occ=0.000000D+00  E= 3.757194D-01

 Vector  158  Occ=0.000000D+00  E= 3.767349D-01

 Vector  159  Occ=0.000000D+00  E= 3.786973D-01

 Vector  160  Occ=0.000000D+00  E= 3.838028D-01

 Vector  161  Occ=0.000000D+00  E= 3.850771D-01

 Vector  162  Occ=0.000000D+00  E= 3.875288D-01

 Vector  163  Occ=0.000000D+00  E= 3.911644D-01

 Vector  164  Occ=0.000000D+00  E= 3.914882D-01

 Vector  165  Occ=0.000000D+00  E= 3.945929D-01

 Vector  166  Occ=0.000000D+00  E= 4.003257D-01

 Vector  167  Occ=0.000000D+00  E= 4.017848D-01

 Vector  168  Occ=0.000000D+00  E= 4.074104D-01

 Vector  169  Occ=0.000000D+00  E= 4.154558D-01

 Vector  170  Occ=0.000000D+00  E= 4.191712D-01

 Vector  171  Occ=0.000000D+00  E= 4.211550D-01

 Vector  172  Occ=0.000000D+00  E= 4.233849D-01

 Vector  173  Occ=0.000000D+00  E= 4.256338D-01

 Vector  174  Occ=0.000000D+00  E= 4.288716D-01

 Vector  175  Occ=0.000000D+00  E= 4.318460D-01

 Vector  176  Occ=0.000000D+00  E= 4.355475D-01

 Vector  177  Occ=0.000000D+00  E= 4.387831D-01

 Vector  178  Occ=0.000000D+00  E= 4.405039D-01

 Vector  179  Occ=0.000000D+00  E= 4.431636D-01

 Vector  180  Occ=0.000000D+00  E= 4.460978D-01

 Vector  181  Occ=0.000000D+00  E= 4.511082D-01

 Vector  182  Occ=0.000000D+00  E= 4.585956D-01

 Vector  183  Occ=0.000000D+00  E= 4.655505D-01

 Vector  184  Occ=0.000000D+00  E= 4.671076D-01

 Vector  185  Occ=0.000000D+00  E= 4.694419D-01

 Vector  186  Occ=0.000000D+00  E= 4.777670D-01

 Vector  187  Occ=0.000000D+00  E= 4.784487D-01

 Vector  188  Occ=0.000000D+00  E= 4.813329D-01

 Vector  189  Occ=0.000000D+00  E= 4.898989D-01

 Vector  190  Occ=0.000000D+00  E= 4.908720D-01

 Vector  191  Occ=0.000000D+00  E= 4.947652D-01

 Vector  192  Occ=0.000000D+00  E= 5.007297D-01

       Multipole analysis of the density wrt the origin
       ------------------------------------------------

     L   x y z        total         open         nuclear
     -   - - -        -----         ----         -------
     0   0 0 0     -0.000000      0.000000    142.000000

     1   1 0 0     -3.727295      0.000000      0.000000
     1   0 1 0     -0.117017      0.000000      0.000000
     1   0 0 1      0.711901      0.000000      0.000000

     2   2 0 0    -88.730512      0.000000   1535.205045
     2   1 1 0      2.562806      0.000000    -14.303573
     2   1 0 1      5.052427      0.000000     16.319988
     2   0 2 0    -71.184075      0.000000   2403.696749
     2   0 1 1      5.371029      0.000000     24.268345

 Total times  cpu:     5734.4s     wall:     6004.6s
