 Output coordinates in angstroms (scale by  1.889725989 to convert to a.u.)

  No.       Tag          Charge          X              Y              Z
 ---- ---------------- ---------- -------------- -------------- --------------
    1 H                    1.0000     2.83771796     3.65552464     0.23037061
    2 C                    6.0000     1.81845347     3.90595411    -0.06258328
    3 H                    1.0000     1.77199523     4.02934908    -1.14340534
    4 H                    1.0000     1.51269522     4.82706091     0.43152111
    5 C                    6.0000     0.89998958     2.78239100     0.35087533
    6 O                    8.0000     1.35313181     1.78752151     0.90988679
    7 N                    7.0000    -0.39478225     2.93022243     0.07131356
    8 H                    1.0000    -0.68790399     3.75297450    -0.42826693
    9 C                    6.0000    -1.39552886     1.90022444     0.34723628
   10 H                    1.0000    -1.38102448     1.68225026     1.41632275
   11 C                    6.0000    -2.78315303     2.44874354    -0.00899250
   12 H                    1.0000    -2.82820048     2.69271932    -1.07136793
   13 H                    1.0000    -3.54082004     1.69638388     0.21170107
   14 H                    1.0000    -2.99266906     3.34365286     0.57819856
   15 C                    6.0000    -1.06231117     0.60449729    -0.41785073
   16 O                    8.0000    -1.12140124     0.56563566    -1.64542848
   17 N                    7.0000    -0.69123297    -0.44620007     0.31894641
   18 H                    1.0000    -0.69918123    -0.35186576     1.32272370
   19 C                    6.0000    -0.05417017    -1.65731314    -0.22184481
   20 H                    1.0000    -0.14806700    -1.66403351    -1.30828635
   21 C                    6.0000     1.44887668    -1.66036129     0.11594341
   22 H                    1.0000     1.57614950    -1.63315214     1.19860970
   23 C                    6.0000     2.19214872    -2.87818964    -0.43564137
   24 H                    1.0000     3.26043693    -2.76030084    -0.24900926
   25 H                    1.0000     1.85517845    -3.78618608     0.06327597
   26 H                    1.0000     2.02680891    -2.95984135    -1.50982745
   27 O                    8.0000     2.08000019    -0.53360796    -0.44238180
   28 H                    1.0000     1.81319536     0.25087709     0.06679341
   29 C                    6.0000    -0.73311981    -2.91092035     0.32659329
   30 O                    8.0000    -1.03306206    -2.99558027     1.51182464
   31 N                    7.0000    -0.97659464    -3.91326578    -0.50753659
   32 H                    1.0000    -0.73074516    -3.83579664    -1.48105524
   33 H                    1.0000    -1.42375910    -4.73681956    -0.14098496

         Total SCF energy =   -813.692642637219

 Vector   92  Occ=0.000000D+00  E= 1.672089D-01

 Vector   93  Occ=0.000000D+00  E= 1.688887D-01

 Vector   94  Occ=0.000000D+00  E= 1.713113D-01

 Vector   95  Occ=0.000000D+00  E= 1.719923D-01

 Vector   96  Occ=0.000000D+00  E= 1.740269D-01

 Vector   97  Occ=0.000000D+00  E= 1.786466D-01

 Vector   98  Occ=0.000000D+00  E= 1.833438D-01

 Vector   99  Occ=0.000000D+00  E= 1.851432D-01

 Vector  100  Occ=0.000000D+00  E= 1.890634D-01

 Vector  101  Occ=0.000000D+00  E= 1.918343D-01

 Vector  102  Occ=0.000000D+00  E= 1.937076D-01

 Vector  103  Occ=0.000000D+00  E= 1.973299D-01

 Vector  104  Occ=0.000000D+00  E= 2.008921D-01

 Vector  105  Occ=0.000000D+00  E= 2.070505D-01

 Vector  106  Occ=0.000000D+00  E= 2.114146D-01

 Vector  107  Occ=0.000000D+00  E= 2.133247D-01

 Vector  108  Occ=0.000000D+00  E= 2.177385D-01

 Vector  109  Occ=0.000000D+00  E= 2.207386D-01

 Vector  110  Occ=0.000000D+00  E= 2.249492D-01

 Vector  111  Occ=0.000000D+00  E= 2.290897D-01

 Vector  112  Occ=0.000000D+00  E= 2.317034D-01

 Vector  113  Occ=0.000000D+00  E= 2.392332D-01

 Vector  114  Occ=0.000000D+00  E= 2.441667D-01

 Vector  115  Occ=0.000000D+00  E= 2.505255D-01

 Vector  116  Occ=0.000000D+00  E= 2.586921D-01

 Vector  117  Occ=0.000000D+00  E= 2.632237D-01

 Vector  118  Occ=0.000000D+00  E= 2.683663D-01

 Vector  119  Occ=0.000000D+00  E= 2.755002D-01

 Vector  120  Occ=0.000000D+00  E= 2.769104D-01

 Vector  121  Occ=0.000000D+00  E= 2.889399D-01

 Vector  122  Occ=0.000000D+00  E= 2.931634D-01

 Vector  123  Occ=0.000000D+00  E= 2.958501D-01

 Vector  124  Occ=0.000000D+00  E= 3.042224D-01

 Vector  125  Occ=0.000000D+00  E= 3.090953D-01

 Vector  126  Occ=0.000000D+00  E= 3.124611D-01

 Vector  127  Occ=0.000000D+00  E= 3.221615D-01

 Vector  128  Occ=0.000000D+00  E= 3.298513D-01

 Vector  129  Occ=0.000000D+00  E= 3.374935D-01

 Vector  130  Occ=0.000000D+00  E= 3.391254D-01

 Vector  131  Occ=0.000000D+00  E= 3.406875D-01

 Vector  132  Occ=0.000000D+00  E= 3.465248D-01

 Vector  133  Occ=0.000000D+00  E= 3.476915D-01

 Vector  134  Occ=0.000000D+00  E= 3.542673D-01

 Vector  135  Occ=0.000000D+00  E= 3.566503D-01

 Vector  136  Occ=0.000000D+00  E= 3.613474D-01

 Vector  137  Occ=0.000000D+00  E= 3.649973D-01

 Vector  138  Occ=0.000000D+00  E= 3.691933D-01

 Vector  139  Occ=0.000000D+00  E= 3.741482D-01

 Vector  140  Occ=0.000000D+00  E= 3.746416D-01

 Vector  141  Occ=0.000000D+00  E= 3.796535D-01

 Vector  142  Occ=0.000000D+00  E= 3.813315D-01

 Vector  143  Occ=0.000000D+00  E= 3.905110D-01

 Vector  144  Occ=0.000000D+00  E= 3.933509D-01

 Vector  145  Occ=0.000000D+00  E= 3.962391D-01

 Vector  146  Occ=0.000000D+00  E= 4.005925D-01

 Vector  147  Occ=0.000000D+00  E= 4.028093D-01

 Vector  148  Occ=0.000000D+00  E= 4.072219D-01

 Vector  149  Occ=0.000000D+00  E= 4.113404D-01

 Vector  150  Occ=0.000000D+00  E= 4.141619D-01

 Vector  151  Occ=0.000000D+00  E= 4.192041D-01

 Vector  152  Occ=0.000000D+00  E= 4.238672D-01

 Vector  153  Occ=0.000000D+00  E= 4.263705D-01

 Vector  154  Occ=0.000000D+00  E= 4.303258D-01

 Vector  155  Occ=0.000000D+00  E= 4.314838D-01

 Vector  156  Occ=0.000000D+00  E= 4.386875D-01

 Vector  157  Occ=0.000000D+00  E= 4.422348D-01

 Vector  158  Occ=0.000000D+00  E= 4.447286D-01

 Vector  159  Occ=0.000000D+00  E= 4.475722D-01

 Vector  160  Occ=0.000000D+00  E= 4.521998D-01

 Vector  161  Occ=0.000000D+00  E= 4.568722D-01

 Vector  162  Occ=0.000000D+00  E= 4.641255D-01

 Vector  163  Occ=0.000000D+00  E= 4.690679D-01

 Vector  164  Occ=0.000000D+00  E= 4.738416D-01

 Vector  165  Occ=0.000000D+00  E= 4.790417D-01

 Vector  166  Occ=0.000000D+00  E= 4.818894D-01

 Vector  167  Occ=0.000000D+00  E= 4.852227D-01

 Vector  168  Occ=0.000000D+00  E= 4.921150D-01

 Vector  169  Occ=0.000000D+00  E= 4.952128D-01

 Vector  170  Occ=0.000000D+00  E= 4.975258D-01

 Vector  171  Occ=0.000000D+00  E= 5.008333D-01

       Multipole analysis of the density wrt the origin
       ------------------------------------------------

     L   x y z        total         open         nuclear
     -   - - -        -----         ----         -------
     0   0 0 0      0.000000      0.000000    124.000000

     1   1 0 0     -0.688491      0.000000     -0.000000
     1   0 1 0      1.106938      0.000000      0.000000
     1   0 0 1     -0.273355      0.000000     -0.000000

     2   2 0 0    -73.755213      0.000000   1020.071903
     2   1 1 0     -1.254763      0.000000    -31.481409
     2   1 0 1     -0.114848      0.000000     -5.382741
     2   0 2 0    -47.902793      0.000000   2738.582695
     2   0 1 1      8.468660      0.000000     16.793767

 Total times  cpu:     4158.5s     wall:     4235.3s
