 Output coordinates in angstroms (scale by  1.889725989 to convert to a.u.)

  No.       Tag          Charge          X              Y              Z
 ---- ---------------- ---------- -------------- -------------- --------------
    1 H                    1.0000     2.98550141     0.28070280    -2.08017806
    2 C                    6.0000     3.40524723    -0.68436909    -1.80822825
    3 H                    1.0000     4.42131918    -0.55617481    -1.44015759
    4 H                    1.0000     3.41618273    -1.33591667    -2.68182838
    5 C                    6.0000     2.56009270    -1.32314208    -0.73201411
    6 O                    8.0000     2.01413992    -2.39830604    -0.93929178
    7 N                    7.0000     2.43196191    -0.64864388     0.41010702
    8 H                    1.0000     2.88300385     0.24793734     0.48636508
    9 C                    6.0000     1.77431363    -1.18164476     1.61301633
   10 H                    1.0000     2.28930170    -2.09734954     1.90752279
   11 C                    6.0000     1.94985909    -0.14797576     2.73168392
   12 H                    1.0000     1.51765371    -0.53614674     3.65567244
   13 H                    1.0000     3.01018081     0.04957782     2.89677615
   14 H                    1.0000     1.44154971     0.78152150     2.46728000
   15 C                    6.0000     0.28404281    -1.55107462     1.43384199
   16 O                    8.0000    -0.26551002    -2.29353772     2.24206921
   17 N                    7.0000    -0.36740253    -1.04593355     0.38318816
   18 H                    1.0000     0.13909901    -0.41750982    -0.21693666
   19 C                    6.0000    -1.76374883    -1.33762778     0.03474376
   20 H                    1.0000    -2.34376920    -1.37830098     0.95861120
   21 C                    6.0000    -2.31317314    -0.18383223    -0.81964477
   22 H                    1.0000    -1.90689455    -0.27365167    -1.82824984
   23 H                    1.0000    -3.39681611    -0.28561571    -0.89282287
   24 C                    6.0000    -1.98400198     1.18963801    -0.31217867
   25 C                    6.0000    -2.73534705     1.90921210     0.55064849
   26 H                    1.0000    -3.69046488     1.58895609     0.95104831
   27 N                    7.0000    -2.08273714     3.08493145     0.86741072
   28 H                    1.0000    -2.45820344     3.77556400     1.50197808
   29 C                    6.0000    -0.85980211     3.17262618     0.23636355
   30 C                    6.0000     0.16319578     4.13245029     0.25567664
   31 H                    1.0000     0.06509737     5.02063675     0.86063822
   32 C                    6.0000     1.30843101     3.92646211    -0.53201691
   33 H                    1.0000     2.09992436     4.66349624    -0.53901488
   34 C                    6.0000     1.41449460     2.77219084    -1.32906292
   35 H                    1.0000     2.28525165     2.63684960    -1.95448590
   36 C                    6.0000     0.38363190     1.81043001    -1.33571134
   37 H                    1.0000     0.46294448     0.93984265    -1.96978245
   38 C                    6.0000    -0.77706340     1.98347664    -0.54710098
   39 C                    6.0000    -1.96613684    -2.69380066    -0.66809848
   40 O                    8.0000    -3.09467126    -3.08580016    -0.93781772
   41 N                    7.0000    -0.90784414    -3.42382799    -1.00182841
   42 H                    1.0000    -1.06136473    -4.31010458    -1.45204751
   43 H                    1.0000     0.02677467    -3.09696011    -0.79371769

         Total SCF energy =  -1060.127033583166

 Vector  149  Occ=0.000000D+00  E= 2.335309D-01

 Vector  150  Occ=0.000000D+00  E= 2.381068D-01

 Vector  151  Occ=0.000000D+00  E= 2.408468D-01

 Vector  152  Occ=0.000000D+00  E= 2.439122D-01

 Vector  153  Occ=0.000000D+00  E= 2.493230D-01

 Vector  154  Occ=0.000000D+00  E= 2.520708D-01

 Vector  155  Occ=0.000000D+00  E= 2.594847D-01

 Vector  156  Occ=0.000000D+00  E= 2.605957D-01

 Vector  157  Occ=0.000000D+00  E= 2.659275D-01

 Vector  158  Occ=0.000000D+00  E= 2.702121D-01

 Vector  159  Occ=0.000000D+00  E= 2.738425D-01

 Vector  160  Occ=0.000000D+00  E= 2.775115D-01

 Vector  161  Occ=0.000000D+00  E= 2.782125D-01

 Vector  162  Occ=0.000000D+00  E= 2.824308D-01

 Vector  163  Occ=0.000000D+00  E= 2.873848D-01

 Vector  164  Occ=0.000000D+00  E= 2.879507D-01

 Vector  165  Occ=0.000000D+00  E= 2.965316D-01

 Vector  166  Occ=0.000000D+00  E= 2.994222D-01

 Vector  167  Occ=0.000000D+00  E= 3.024618D-01

 Vector  168  Occ=0.000000D+00  E= 3.071982D-01

 Vector  169  Occ=0.000000D+00  E= 3.111979D-01

 Vector  170  Occ=0.000000D+00  E= 3.126524D-01

 Vector  171  Occ=0.000000D+00  E= 3.154632D-01

 Vector  172  Occ=0.000000D+00  E= 3.164035D-01

 Vector  173  Occ=0.000000D+00  E= 3.220591D-01

 Vector  174  Occ=0.000000D+00  E= 3.280051D-01

 Vector  175  Occ=0.000000D+00  E= 3.285621D-01

 Vector  176  Occ=0.000000D+00  E= 3.348019D-01

 Vector  177  Occ=0.000000D+00  E= 3.393369D-01

 Vector  178  Occ=0.000000D+00  E= 3.431796D-01

 Vector  179  Occ=0.000000D+00  E= 3.450637D-01

 Vector  180  Occ=0.000000D+00  E= 3.472829D-01

 Vector  181  Occ=0.000000D+00  E= 3.546280D-01

 Vector  182  Occ=0.000000D+00  E= 3.575211D-01

 Vector  183  Occ=0.000000D+00  E= 3.610269D-01

 Vector  184  Occ=0.000000D+00  E= 3.632572D-01

 Vector  185  Occ=0.000000D+00  E= 3.647950D-01

 Vector  186  Occ=0.000000D+00  E= 3.661440D-01

 Vector  187  Occ=0.000000D+00  E= 3.707424D-01

 Vector  188  Occ=0.000000D+00  E= 3.741883D-01

 Vector  189  Occ=0.000000D+00  E= 3.796291D-01

 Vector  190  Occ=0.000000D+00  E= 3.799155D-01

 Vector  191  Occ=0.000000D+00  E= 3.843769D-01

 Vector  192  Occ=0.000000D+00  E= 3.872543D-01

 Vector  193  Occ=0.000000D+00  E= 3.897421D-01

 Vector  194  Occ=0.000000D+00  E= 3.949729D-01

 Vector  195  Occ=0.000000D+00  E= 3.958268D-01

 Vector  196  Occ=0.000000D+00  E= 4.007876D-01

 Vector  197  Occ=0.000000D+00  E= 4.013024D-01

 Vector  198  Occ=0.000000D+00  E= 4.057758D-01

 Vector  199  Occ=0.000000D+00  E= 4.087929D-01

 Vector  200  Occ=0.000000D+00  E= 4.126348D-01

 Vector  201  Occ=0.000000D+00  E= 4.146333D-01

 Vector  202  Occ=0.000000D+00  E= 4.201002D-01

 Vector  203  Occ=0.000000D+00  E= 4.235190D-01

 Vector  204  Occ=0.000000D+00  E= 4.246736D-01

 Vector  205  Occ=0.000000D+00  E= 4.271477D-01

 Vector  206  Occ=0.000000D+00  E= 4.293050D-01

 Vector  207  Occ=0.000000D+00  E= 4.324017D-01

 Vector  208  Occ=0.000000D+00  E= 4.345722D-01

 Vector  209  Occ=0.000000D+00  E= 4.360063D-01

 Vector  210  Occ=0.000000D+00  E= 4.404757D-01

 Vector  211  Occ=0.000000D+00  E= 4.426397D-01

 Vector  212  Occ=0.000000D+00  E= 4.454025D-01

 Vector  213  Occ=0.000000D+00  E= 4.476325D-01

 Vector  214  Occ=0.000000D+00  E= 4.510877D-01

 Vector  215  Occ=0.000000D+00  E= 4.535518D-01

 Vector  216  Occ=0.000000D+00  E= 4.583270D-01

 Vector  217  Occ=0.000000D+00  E= 4.624637D-01

 Vector  218  Occ=0.000000D+00  E= 4.656842D-01

 Vector  219  Occ=0.000000D+00  E= 4.680068D-01

 Vector  220  Occ=0.000000D+00  E= 4.700415D-01

 Vector  221  Occ=0.000000D+00  E= 4.737922D-01

 Vector  222  Occ=0.000000D+00  E= 4.766035D-01

 Vector  223  Occ=0.000000D+00  E= 4.822252D-01

 Vector  224  Occ=0.000000D+00  E= 4.832286D-01

 Vector  225  Occ=0.000000D+00  E= 4.865284D-01

 Vector  226  Occ=0.000000D+00  E= 4.904647D-01

 Vector  227  Occ=0.000000D+00  E= 4.942171D-01

 Vector  228  Occ=0.000000D+00  E= 5.004067D-01

       Multipole analysis of the density wrt the origin
       ------------------------------------------------

     L   x y z        total         open         nuclear
     -   - - -        -----         ----         -------
     0   0 0 0     -0.000000      0.000000    168.000000

     1   1 0 0      2.133091      0.000000     -0.000000
     1   0 1 0      3.279609      0.000000     -0.000000
     1   0 0 1      0.244862      0.000000     -0.000000

     2   2 0 0    -96.745150      0.000000   2255.139519
     2   1 1 0    -11.908353      0.000000      1.842962
     2   1 0 1     -5.456515      0.000000    -10.707245
     2   0 2 0   -109.101030      0.000000   3210.012659
     2   0 1 1      9.133787      0.000000     18.135926

 Total times  cpu:    11996.2s     wall:    12261.5s
