 Output coordinates in angstroms (scale by  1.889725989 to convert to a.u.)

  No.       Tag          Charge          X              Y              Z
 ---- ---------------- ---------- -------------- -------------- --------------
    1 H                    1.0000     2.42809532    -2.80550746     0.77675265
    2 C                    6.0000     2.19946547    -3.07356837    -0.25431803
    3 H                    1.0000     2.05301436    -4.14884929    -0.33258049
    4 H                    1.0000     3.02241570    -2.76795799    -0.89730808
    5 C                    6.0000     0.93913651    -2.36167740    -0.68829635
    6 O                    8.0000     0.95642993    -1.61214072    -1.65731942
    7 N                    7.0000    -0.15886736    -2.60311100     0.02141578
    8 H                    1.0000    -0.07138805    -3.18992629     0.83451121
    9 C                    6.0000    -1.49527636    -2.09258116    -0.30128576
   10 H                    1.0000    -1.59127715    -2.06771936    -1.38834590
   11 C                    6.0000    -2.52547387    -3.10343777     0.22672464
   12 H                    1.0000    -2.47507193    -3.15472960     1.31487986
   13 H                    1.0000    -3.52837797    -2.79084869    -0.06505856
   14 H                    1.0000    -2.32964540    -4.09148534    -0.19385498
   15 C                    6.0000    -1.74400819    -0.64574647     0.19090814
   16 O                    8.0000    -2.70596724    -0.38634926     0.91382299
   17 N                    7.0000    -0.87938735     0.30642897    -0.17825680
   18 H                    1.0000    -0.10387350     0.03706646    -0.77704316
   19 C                    6.0000    -0.96318199     1.70782024     0.26725072
   20 H                    1.0000    -2.00613732     1.91116968     0.51560973
   21 C                    6.0000    -0.15081287     1.90986060     1.56579803
   22 H                    1.0000    -0.47659841     2.84558314     2.02030777
   23 H                    1.0000    -0.39983585     1.11047419     2.26623142
   24 C                    6.0000     1.38289750     1.97789392     1.41927166
   25 H                    1.0000     1.65759512     2.84761836     0.82272943
   26 H                    1.0000     1.82039343     2.10939561     2.40905628
   27 C                    6.0000     1.98805297     0.72410447     0.79804395
   28 O                    8.0000     2.19780368    -0.28217473     1.45132782
   29 N                    7.0000     2.23981683     0.72244141    -0.49117992
   30 H                    1.0000     1.91091843     1.49189348    -1.06533263
   31 H                    1.0000     2.47039174    -0.16379566    -0.91061654
   32 C                    6.0000    -0.57060219     2.71337259    -0.82858757
   33 O                    8.0000     0.34586515     2.48825465    -1.61302019
   34 N                    7.0000    -1.22434649     3.86645124    -0.87340976
   35 H                    1.0000    -0.96441739     4.53089033    -1.58512498
   36 H                    1.0000    -1.97094455     4.05429069    -0.22634433

         Total SCF energy =   -906.630590739689

 Vector  107  Occ=0.000000D+00  E= 1.827932D-01

 Vector  108  Occ=0.000000D+00  E= 1.883607D-01

 Vector  109  Occ=0.000000D+00  E= 1.903512D-01

 Vector  110  Occ=0.000000D+00  E= 1.925119D-01

 Vector  111  Occ=0.000000D+00  E= 1.952030D-01

 Vector  112  Occ=0.000000D+00  E= 1.970926D-01

 Vector  113  Occ=0.000000D+00  E= 1.985718D-01

 Vector  114  Occ=0.000000D+00  E= 2.007424D-01

 Vector  115  Occ=0.000000D+00  E= 2.040134D-01

 Vector  116  Occ=0.000000D+00  E= 2.069483D-01

 Vector  117  Occ=0.000000D+00  E= 2.111672D-01

 Vector  118  Occ=0.000000D+00  E= 2.155580D-01

 Vector  119  Occ=0.000000D+00  E= 2.202751D-01

 Vector  120  Occ=0.000000D+00  E= 2.222822D-01

 Vector  121  Occ=0.000000D+00  E= 2.269161D-01

 Vector  122  Occ=0.000000D+00  E= 2.309035D-01

 Vector  123  Occ=0.000000D+00  E= 2.326050D-01

 Vector  124  Occ=0.000000D+00  E= 2.379767D-01

 Vector  125  Occ=0.000000D+00  E= 2.460827D-01

 Vector  126  Occ=0.000000D+00  E= 2.482017D-01

 Vector  127  Occ=0.000000D+00  E= 2.541483D-01

 Vector  128  Occ=0.000000D+00  E= 2.570202D-01

 Vector  129  Occ=0.000000D+00  E= 2.648163D-01

 Vector  130  Occ=0.000000D+00  E= 2.714080D-01

 Vector  131  Occ=0.000000D+00  E= 2.761415D-01

 Vector  132  Occ=0.000000D+00  E= 2.840725D-01

 Vector  133  Occ=0.000000D+00  E= 2.931573D-01

 Vector  134  Occ=0.000000D+00  E= 2.974691D-01

 Vector  135  Occ=0.000000D+00  E= 3.007167D-01

 Vector  136  Occ=0.000000D+00  E= 3.051429D-01

 Vector  137  Occ=0.000000D+00  E= 3.100784D-01

 Vector  138  Occ=0.000000D+00  E= 3.132939D-01

 Vector  139  Occ=0.000000D+00  E= 3.162445D-01

 Vector  140  Occ=0.000000D+00  E= 3.191108D-01

 Vector  141  Occ=0.000000D+00  E= 3.228585D-01

 Vector  142  Occ=0.000000D+00  E= 3.324168D-01

 Vector  143  Occ=0.000000D+00  E= 3.371773D-01

 Vector  144  Occ=0.000000D+00  E= 3.410766D-01

 Vector  145  Occ=0.000000D+00  E= 3.449677D-01

 Vector  146  Occ=0.000000D+00  E= 3.498121D-01

 Vector  147  Occ=0.000000D+00  E= 3.513097D-01

 Vector  148  Occ=0.000000D+00  E= 3.564544D-01

 Vector  149  Occ=0.000000D+00  E= 3.590955D-01

 Vector  150  Occ=0.000000D+00  E= 3.647127D-01

 Vector  151  Occ=0.000000D+00  E= 3.669030D-01

 Vector  152  Occ=0.000000D+00  E= 3.702787D-01

 Vector  153  Occ=0.000000D+00  E= 3.727212D-01

 Vector  154  Occ=0.000000D+00  E= 3.779092D-01

 Vector  155  Occ=0.000000D+00  E= 3.817356D-01

 Vector  156  Occ=0.000000D+00  E= 3.837202D-01

 Vector  157  Occ=0.000000D+00  E= 3.874186D-01

 Vector  158  Occ=0.000000D+00  E= 3.930051D-01

 Vector  159  Occ=0.000000D+00  E= 3.953154D-01

 Vector  160  Occ=0.000000D+00  E= 4.010153D-01

 Vector  161  Occ=0.000000D+00  E= 4.012932D-01

 Vector  162  Occ=0.000000D+00  E= 4.070492D-01

 Vector  163  Occ=0.000000D+00  E= 4.102671D-01

 Vector  164  Occ=0.000000D+00  E= 4.108153D-01

 Vector  165  Occ=0.000000D+00  E= 4.131823D-01

 Vector  166  Occ=0.000000D+00  E= 4.145679D-01

 Vector  167  Occ=0.000000D+00  E= 4.204250D-01

 Vector  168  Occ=0.000000D+00  E= 4.247172D-01

 Vector  169  Occ=0.000000D+00  E= 4.264926D-01

 Vector  170  Occ=0.000000D+00  E= 4.324704D-01

 Vector  171  Occ=0.000000D+00  E= 4.328944D-01

 Vector  172  Occ=0.000000D+00  E= 4.386736D-01

 Vector  173  Occ=0.000000D+00  E= 4.412994D-01

 Vector  174  Occ=0.000000D+00  E= 4.485540D-01

 Vector  175  Occ=0.000000D+00  E= 4.513079D-01

 Vector  176  Occ=0.000000D+00  E= 4.543454D-01

 Vector  177  Occ=0.000000D+00  E= 4.580057D-01

 Vector  178  Occ=0.000000D+00  E= 4.683248D-01

 Vector  179  Occ=0.000000D+00  E= 4.707506D-01

 Vector  180  Occ=0.000000D+00  E= 4.727947D-01

 Vector  181  Occ=0.000000D+00  E= 4.774175D-01

 Vector  182  Occ=0.000000D+00  E= 4.784450D-01

 Vector  183  Occ=0.000000D+00  E= 4.838248D-01

 Vector  184  Occ=0.000000D+00  E= 4.914963D-01

 Vector  185  Occ=0.000000D+00  E= 4.964119D-01

 Vector  186  Occ=0.000000D+00  E= 5.021063D-01

       Multipole analysis of the density wrt the origin
       ------------------------------------------------

     L   x y z        total         open         nuclear
     -   - - -        -----         ----         -------
     0   0 0 0      0.000000      0.000000    138.000000

     1   1 0 0     -0.755376      0.000000     -0.000000
     1   0 1 0      0.806094      0.000000     -0.000000
     1   0 0 1      0.110058      0.000000     -0.000000

     2   2 0 0    -87.178302      0.000000   1337.828137
     2   1 1 0     -5.668029      0.000000      0.060520
     2   1 0 1      2.483604      0.000000     -2.358874
     2   0 2 0    -53.802825      0.000000   2363.585738
     2   0 1 1      0.623231      0.000000     10.221963

 Total times  cpu:     6029.6s     wall:     6148.8s
