 Output coordinates in angstroms (scale by  1.889725989 to convert to a.u.)

  No.       Tag          Charge          X              Y              Z
 ---- ---------------- ---------- -------------- -------------- --------------
    1 H                    1.0000     3.29156602     2.06827112     1.70555187
    2 C                    6.0000     2.84590930     2.48457860     0.80282978
    3 H                    1.0000     3.30642292     2.03105606    -0.07296558
    4 H                    1.0000     2.99915688     3.56188535     0.78839571
    5 C                    6.0000     1.36441906     2.19045435     0.80845273
    6 O                    8.0000     0.86481520     1.56432272     1.73203768
    7 N                    7.0000     0.66538715     2.61005955    -0.24595699
    8 H                    1.0000     1.15665771     3.11306182    -0.96662887
    9 C                    6.0000    -0.79839939     2.52102063    -0.36297003
   10 H                    1.0000    -1.23587445     3.03420950     0.49498844
   11 C                    6.0000    -1.21023390     3.28171144    -1.63137802
   12 H                    1.0000    -0.80194811     2.78848080    -2.51448914
   13 H                    1.0000    -2.29826323     3.29597840    -1.70848589
   14 H                    1.0000    -0.85030715     4.30975933    -1.58517970
   15 C                    6.0000    -1.38499696     1.08834852    -0.35375564
   16 O                    8.0000    -2.60024898     0.93026567    -0.29577859
   17 N                    7.0000    -0.54171509     0.05029105    -0.39715363
   18 H                    1.0000     0.44255221     0.25801631    -0.40952705
   19 C                    6.0000    -0.93571882    -1.35925642    -0.22513916
   20 H                    1.0000    -1.88831289    -1.50865072    -0.73471239
   21 C                    6.0000     0.10127246    -2.29590057    -0.88979233
   22 H                    1.0000    -0.26701993    -3.31673806    -0.77679887
   23 C                    6.0000     0.18198667    -2.00945225    -2.40239657
   24 H                    1.0000     0.74472763    -2.79778818    -2.90328986
   25 H                    1.0000    -0.82316038    -1.99308511    -2.82576463
   26 H                    1.0000     0.66444434    -1.05119168    -2.58931175
   27 C                    6.0000     1.48826868    -2.21688611    -0.20733632
   28 H                    1.0000     1.91048580    -1.22041451    -0.34053935
   29 H                    1.0000     1.37207024    -2.39400578     0.86184587
   30 C                    6.0000     2.49525260    -3.24874209    -0.73162117
   31 H                    1.0000     3.40524243    -3.19950874    -0.13233360
   32 H                    1.0000     2.07529490    -4.25185590    -0.65449644
   33 H                    1.0000     2.75262545    -3.03820940    -1.76895439
   34 C                    6.0000    -1.18091972    -1.75489243     1.24528481
   35 O                    8.0000    -1.62223493    -2.86373427     1.51961613
   36 N                    7.0000    -0.88694959    -0.89679472     2.21581244
   37 H                    1.0000    -0.48926163     0.00688114     1.99756665
   38 H                    1.0000    -1.06384638    -1.17377787     3.16614600

         Total SCF energy =   -816.892708830744

 Vector  110  Occ=0.000000D+00  E= 1.907841D-01

 Vector  111  Occ=0.000000D+00  E= 1.941505D-01

 Vector  112  Occ=0.000000D+00  E= 1.978898D-01

 Vector  113  Occ=0.000000D+00  E= 2.015863D-01

 Vector  114  Occ=0.000000D+00  E= 2.068700D-01

 Vector  115  Occ=0.000000D+00  E= 2.096532D-01

 Vector  116  Occ=0.000000D+00  E= 2.133052D-01

 Vector  117  Occ=0.000000D+00  E= 2.152520D-01

 Vector  118  Occ=0.000000D+00  E= 2.182627D-01

 Vector  119  Occ=0.000000D+00  E= 2.226552D-01

 Vector  120  Occ=0.000000D+00  E= 2.264245D-01

 Vector  121  Occ=0.000000D+00  E= 2.289187D-01

 Vector  122  Occ=0.000000D+00  E= 2.324296D-01

 Vector  123  Occ=0.000000D+00  E= 2.350119D-01

 Vector  124  Occ=0.000000D+00  E= 2.388645D-01

 Vector  125  Occ=0.000000D+00  E= 2.455072D-01

 Vector  126  Occ=0.000000D+00  E= 2.549359D-01

 Vector  127  Occ=0.000000D+00  E= 2.580156D-01

 Vector  128  Occ=0.000000D+00  E= 2.601790D-01

 Vector  129  Occ=0.000000D+00  E= 2.630236D-01

 Vector  130  Occ=0.000000D+00  E= 2.675008D-01

 Vector  131  Occ=0.000000D+00  E= 2.722269D-01

 Vector  132  Occ=0.000000D+00  E= 2.834447D-01

 Vector  133  Occ=0.000000D+00  E= 2.860207D-01

 Vector  134  Occ=0.000000D+00  E= 2.883975D-01

 Vector  135  Occ=0.000000D+00  E= 2.977117D-01

 Vector  136  Occ=0.000000D+00  E= 2.995534D-01

 Vector  137  Occ=0.000000D+00  E= 3.076620D-01

 Vector  138  Occ=0.000000D+00  E= 3.092267D-01

 Vector  139  Occ=0.000000D+00  E= 3.176657D-01

 Vector  140  Occ=0.000000D+00  E= 3.268450D-01

 Vector  141  Occ=0.000000D+00  E= 3.304222D-01

 Vector  142  Occ=0.000000D+00  E= 3.338747D-01

 Vector  143  Occ=0.000000D+00  E= 3.351412D-01

 Vector  144  Occ=0.000000D+00  E= 3.387277D-01

 Vector  145  Occ=0.000000D+00  E= 3.417597D-01

 Vector  146  Occ=0.000000D+00  E= 3.424186D-01

 Vector  147  Occ=0.000000D+00  E= 3.476049D-01

 Vector  148  Occ=0.000000D+00  E= 3.540233D-01

 Vector  149  Occ=0.000000D+00  E= 3.593356D-01

 Vector  150  Occ=0.000000D+00  E= 3.603831D-01

 Vector  151  Occ=0.000000D+00  E= 3.696388D-01

 Vector  152  Occ=0.000000D+00  E= 3.729037D-01

 Vector  153  Occ=0.000000D+00  E= 3.779922D-01

 Vector  154  Occ=0.000000D+00  E= 3.797525D-01

 Vector  155  Occ=0.000000D+00  E= 3.822931D-01

 Vector  156  Occ=0.000000D+00  E= 3.889828D-01

 Vector  157  Occ=0.000000D+00  E= 3.896599D-01

 Vector  158  Occ=0.000000D+00  E= 3.923393D-01

 Vector  159  Occ=0.000000D+00  E= 3.952771D-01

 Vector  160  Occ=0.000000D+00  E= 3.959734D-01

 Vector  161  Occ=0.000000D+00  E= 4.002904D-01

 Vector  162  Occ=0.000000D+00  E= 4.071376D-01

 Vector  163  Occ=0.000000D+00  E= 4.117814D-01

 Vector  164  Occ=0.000000D+00  E= 4.127233D-01

 Vector  165  Occ=0.000000D+00  E= 4.144665D-01

 Vector  166  Occ=0.000000D+00  E= 4.173743D-01

 Vector  167  Occ=0.000000D+00  E= 4.237331D-01

 Vector  168  Occ=0.000000D+00  E= 4.251570D-01

 Vector  169  Occ=0.000000D+00  E= 4.296310D-01

 Vector  170  Occ=0.000000D+00  E= 4.318419D-01

 Vector  171  Occ=0.000000D+00  E= 4.365486D-01

 Vector  172  Occ=0.000000D+00  E= 4.386503D-01

 Vector  173  Occ=0.000000D+00  E= 4.429481D-01

 Vector  174  Occ=0.000000D+00  E= 4.467016D-01

 Vector  175  Occ=0.000000D+00  E= 4.515542D-01

 Vector  176  Occ=0.000000D+00  E= 4.562600D-01

 Vector  177  Occ=0.000000D+00  E= 4.611796D-01

 Vector  178  Occ=0.000000D+00  E= 4.615417D-01

 Vector  179  Occ=0.000000D+00  E= 4.625724D-01

 Vector  180  Occ=0.000000D+00  E= 4.706637D-01

 Vector  181  Occ=0.000000D+00  E= 4.761491D-01

 Vector  182  Occ=0.000000D+00  E= 4.796780D-01

 Vector  183  Occ=0.000000D+00  E= 4.807129D-01

 Vector  184  Occ=0.000000D+00  E= 4.814895D-01

 Vector  185  Occ=0.000000D+00  E= 4.857215D-01

 Vector  186  Occ=0.000000D+00  E= 4.882076D-01

 Vector  187  Occ=0.000000D+00  E= 4.933434D-01

 Vector  188  Occ=0.000000D+00  E= 4.998835D-01

 Vector  189  Occ=0.000000D+00  E= 5.044595D-01

       Multipole analysis of the density wrt the origin
       ------------------------------------------------

     L   x y z        total         open         nuclear
     -   - - -        -----         ----         -------
     0   0 0 0      0.000000      0.000000    132.000000

     1   1 0 0      2.704338      0.000000     -0.000000
     1   0 1 0      2.443449      0.000000     -0.000000
     1   0 0 1     -1.431336      0.000000     -0.000000

     2   2 0 0    -84.723545      0.000000   1129.767815
     2   1 1 0     -0.417733      0.000000    -34.087184
     2   1 0 1      1.240895      0.000000      3.587355
     2   0 2 0    -74.846817      0.000000   2317.449181
     2   0 1 1      1.429449      0.000000     15.158845

 Total times  cpu:     5680.9s     wall:     5979.7s
