 Output coordinates in angstroms (scale by  1.889725989 to convert to a.u.)

  No.       Tag          Charge          X              Y              Z
 ---- ---------------- ---------- -------------- -------------- --------------
    1 H                    1.0000     0.62705993     6.03012391    -0.66792447
    2 C                    6.0000     0.11719534     5.82132837     0.27012751
    3 H                    1.0000    -0.61404225     6.60333548     0.47011370
    4 H                    1.0000     0.83670791     5.77774491     1.08520490
    5 C                    6.0000    -0.60119414     4.49706071     0.16424688
    6 O                    8.0000    -1.81623232     4.44405716     0.30016915
    7 N                    7.0000     0.15581511     3.42884042    -0.07373717
    8 H                    1.0000     1.15559475     3.54875756    -0.13857963
    9 C                    6.0000    -0.34577013     2.05792664    -0.17858768
   10 H                    1.0000    -1.18425061     1.93302382     0.50957710
   11 C                    6.0000    -0.84973967     1.81577367    -1.60926712
   12 H                    1.0000    -1.25662039     0.80738728    -1.69454880
   13 H                    1.0000    -1.63800536     2.53093166    -1.84837431
   14 H                    1.0000    -0.02969257     1.93409848    -2.31917909
   15 C                    6.0000     0.74178015     1.03941441     0.21247654
   16 O                    8.0000     1.93139826     1.35604744     0.21194749
   17 N                    7.0000     0.33793127    -0.19785647     0.50589751
   18 H                    1.0000    -0.65369441    -0.40248364     0.44239776
   19 C                    6.0000     1.19199828    -1.32862985     0.90920895
   20 H                    1.0000     1.91580607    -0.96823779     1.64048102
   21 C                    6.0000     0.29383590    -2.36960159     1.60050278
   22 H                    1.0000     0.89514700    -3.21871153     1.92621168
   23 H                    1.0000    -0.14447496    -1.91865595     2.49216898
   24 C                    6.0000    -0.83194409    -2.85841589     0.72155512
   25 N                    7.0000    -1.98513087    -2.13157062     0.41411047
   26 C                    6.0000    -2.68754313    -2.89966762    -0.43122260
   27 H                    1.0000    -3.64366382    -2.62466671    -0.85860736
   28 N                    7.0000    -2.03310461    -4.04819974    -0.67936807
   29 H                    1.0000    -2.34929735    -4.78338797    -1.29459358
   30 C                    6.0000    -0.85547429    -4.03624980     0.03528432
   31 H                    1.0000    -0.07413722    -4.78502361     0.03568673
   32 C                    6.0000     2.02344556    -1.94587101    -0.24037305
   33 O                    8.0000     2.26261709    -3.14685325    -0.28169659
   34 N                    7.0000     2.46947957    -1.15514668    -1.20515576
   35 H                    1.0000     2.33252033    -0.15738672    -1.12848607
   36 H                    1.0000     3.00830673    -1.56373660    -1.95084777

         Total SCF energy =   -923.476446855932

 Vector  116  Occ=0.000000D+00  E= 1.970617D-01

 Vector  117  Occ=0.000000D+00  E= 1.984328D-01

 Vector  118  Occ=0.000000D+00  E= 2.003488D-01

 Vector  119  Occ=0.000000D+00  E= 2.045419D-01

 Vector  120  Occ=0.000000D+00  E= 2.074280D-01

 Vector  121  Occ=0.000000D+00  E= 2.113304D-01

 Vector  122  Occ=0.000000D+00  E= 2.125017D-01

 Vector  123  Occ=0.000000D+00  E= 2.165941D-01

 Vector  124  Occ=0.000000D+00  E= 2.182864D-01

 Vector  125  Occ=0.000000D+00  E= 2.233733D-01

 Vector  126  Occ=0.000000D+00  E= 2.247628D-01

 Vector  127  Occ=0.000000D+00  E= 2.347536D-01

 Vector  128  Occ=0.000000D+00  E= 2.371960D-01

 Vector  129  Occ=0.000000D+00  E= 2.410486D-01

 Vector  130  Occ=0.000000D+00  E= 2.441761D-01

 Vector  131  Occ=0.000000D+00  E= 2.540696D-01

 Vector  132  Occ=0.000000D+00  E= 2.605329D-01

 Vector  133  Occ=0.000000D+00  E= 2.626321D-01

 Vector  134  Occ=0.000000D+00  E= 2.649101D-01

 Vector  135  Occ=0.000000D+00  E= 2.673682D-01

 Vector  136  Occ=0.000000D+00  E= 2.684774D-01

 Vector  137  Occ=0.000000D+00  E= 2.754752D-01

 Vector  138  Occ=0.000000D+00  E= 2.810075D-01

 Vector  139  Occ=0.000000D+00  E= 2.850888D-01

 Vector  140  Occ=0.000000D+00  E= 2.891890D-01

 Vector  141  Occ=0.000000D+00  E= 2.994659D-01

 Vector  142  Occ=0.000000D+00  E= 2.999565D-01

 Vector  143  Occ=0.000000D+00  E= 3.086625D-01

 Vector  144  Occ=0.000000D+00  E= 3.099527D-01

 Vector  145  Occ=0.000000D+00  E= 3.129459D-01

 Vector  146  Occ=0.000000D+00  E= 3.176687D-01

 Vector  147  Occ=0.000000D+00  E= 3.256544D-01

 Vector  148  Occ=0.000000D+00  E= 3.299677D-01

 Vector  149  Occ=0.000000D+00  E= 3.340202D-01

 Vector  150  Occ=0.000000D+00  E= 3.380900D-01

 Vector  151  Occ=0.000000D+00  E= 3.410826D-01

 Vector  152  Occ=0.000000D+00  E= 3.431056D-01

 Vector  153  Occ=0.000000D+00  E= 3.459566D-01

 Vector  154  Occ=0.000000D+00  E= 3.504853D-01

 Vector  155  Occ=0.000000D+00  E= 3.555847D-01

 Vector  156  Occ=0.000000D+00  E= 3.562375D-01

 Vector  157  Occ=0.000000D+00  E= 3.604381D-01

 Vector  158  Occ=0.000000D+00  E= 3.652907D-01

 Vector  159  Occ=0.000000D+00  E= 3.712512D-01

 Vector  160  Occ=0.000000D+00  E= 3.728442D-01

 Vector  161  Occ=0.000000D+00  E= 3.731437D-01

 Vector  162  Occ=0.000000D+00  E= 3.772117D-01

 Vector  163  Occ=0.000000D+00  E= 3.823794D-01

 Vector  164  Occ=0.000000D+00  E= 3.842841D-01

 Vector  165  Occ=0.000000D+00  E= 3.887377D-01

 Vector  166  Occ=0.000000D+00  E= 3.895249D-01

 Vector  167  Occ=0.000000D+00  E= 3.933444D-01

 Vector  168  Occ=0.000000D+00  E= 3.975252D-01

 Vector  169  Occ=0.000000D+00  E= 4.027382D-01

 Vector  170  Occ=0.000000D+00  E= 4.030566D-01

 Vector  171  Occ=0.000000D+00  E= 4.137584D-01

 Vector  172  Occ=0.000000D+00  E= 4.146570D-01

 Vector  173  Occ=0.000000D+00  E= 4.167522D-01

 Vector  174  Occ=0.000000D+00  E= 4.184790D-01

 Vector  175  Occ=0.000000D+00  E= 4.197112D-01

 Vector  176  Occ=0.000000D+00  E= 4.232827D-01

 Vector  177  Occ=0.000000D+00  E= 4.253221D-01

 Vector  178  Occ=0.000000D+00  E= 4.338634D-01

 Vector  179  Occ=0.000000D+00  E= 4.368337D-01

 Vector  180  Occ=0.000000D+00  E= 4.407082D-01

 Vector  181  Occ=0.000000D+00  E= 4.455488D-01

 Vector  182  Occ=0.000000D+00  E= 4.496327D-01

 Vector  183  Occ=0.000000D+00  E= 4.525180D-01

 Vector  184  Occ=0.000000D+00  E= 4.572552D-01

 Vector  185  Occ=0.000000D+00  E= 4.612362D-01

 Vector  186  Occ=0.000000D+00  E= 4.625094D-01

 Vector  187  Occ=0.000000D+00  E= 4.673337D-01

 Vector  188  Occ=0.000000D+00  E= 4.720558D-01

 Vector  189  Occ=0.000000D+00  E= 4.761617D-01

 Vector  190  Occ=0.000000D+00  E= 4.793621D-01

 Vector  191  Occ=0.000000D+00  E= 4.831693D-01

 Vector  192  Occ=0.000000D+00  E= 4.840778D-01

 Vector  193  Occ=0.000000D+00  E= 4.934014D-01

 Vector  194  Occ=0.000000D+00  E= 4.975501D-01

 Vector  195  Occ=0.000000D+00  E= 5.004182D-01

       Multipole analysis of the density wrt the origin
       ------------------------------------------------

     L   x y z        total         open         nuclear
     -   - - -        -----         ----         -------
     0   0 0 0     -0.000000      0.000000    142.000000

     1   1 0 0     -0.222742      0.000000      0.000000
     1   0 1 0     -1.031193      0.000000      0.000000
     1   0 0 1     -1.070847      0.000000     -0.000000

     2   2 0 0    -90.044584      0.000000   1214.661562
     2   1 1 0     22.011528      0.000000     22.891488
     2   1 0 1      4.513134      0.000000     11.620938
     2   0 2 0    -78.984415      0.000000   4791.227872
     2   0 1 1      2.364505      0.000000    -10.699718

 Total times  cpu:     5311.8s     wall:     5651.8s
