 Output coordinates in angstroms (scale by  1.889725989 to convert to a.u.)

  No.       Tag          Charge          X              Y              Z
 ---- ---------------- ---------- -------------- -------------- --------------
    1 H                    1.0000    -2.05086703    -4.29976035     0.62458649
    2 C                    6.0000    -2.23805696    -3.23007399     0.55306018
    3 H                    1.0000    -2.96420552    -2.93653904     1.31082366
    4 H                    1.0000    -2.62626444    -2.98523115    -0.43403705
    5 C                    6.0000    -0.95220199    -2.47686422     0.79012142
    6 O                    8.0000    -0.86402652    -1.68251964     1.71596254
    7 N                    7.0000     0.04566851    -2.71123328    -0.06119734
    8 H                    1.0000    -0.11801327    -3.36917493    -0.80458288
    9 C                    6.0000     1.38238819    -2.11044971     0.02103162
   10 H                    1.0000     1.68954642    -2.12663378     1.06792172
   11 C                    6.0000     2.35358241    -3.01053129    -0.75937721
   12 H                    1.0000     2.09384719    -3.01221929    -1.81929219
   13 H                    1.0000     3.37121366    -2.63489802    -0.64730006
   14 H                    1.0000     2.31221918    -4.02939755    -0.37183544
   15 C                    6.0000     1.43220176    -0.62484793    -0.42215679
   16 O                    8.0000     2.25145273    -0.24058319    -1.25635009
   17 N                    7.0000     0.54211483     0.21651647     0.11439162
   18 H                    1.0000    -0.08669266    -0.16864999     0.81280765
   19 C                    6.0000     0.41279906     1.64963468    -0.19296911
   20 H                    1.0000     0.57034450     1.78498070    -1.26435274
   21 C                    6.0000    -1.02176967     2.12878585     0.13524988
   22 H                    1.0000    -1.30224585     1.78277084     1.13195682
   23 H                    1.0000    -1.00723762     3.21885730     0.16191567
   24 C                    6.0000    -2.11179941     1.73352626    -0.88198708
   25 H                    1.0000    -1.79983053     2.05369930    -1.87659587
   26 C                    6.0000    -2.42581277     0.23610806    -0.92732282
   27 H                    1.0000    -3.28199522     0.05778609    -1.57775259
   28 H                    1.0000    -1.57660933    -0.30727385    -1.33614506
   29 H                    1.0000    -2.65500820    -0.12340333     0.07522644
   30 C                    6.0000    -3.41263339     2.46192205    -0.53598775
   31 H                    1.0000    -4.17763412     2.23014156    -1.27651236
   32 H                    1.0000    -3.76030899     2.15646550     0.45137843
   33 H                    1.0000    -3.24532536     3.53899567    -0.53754532
   34 C                    6.0000     1.50949780     2.49051055     0.50473904
   35 O                    8.0000     1.24099120     3.43047449     1.24182925
   36 N                    7.0000     2.77472989     2.14785270     0.30812428
   37 H                    1.0000     2.98634411     1.37103576    -0.30326665
   38 H                    1.0000     3.49462101     2.68120223     0.76542947

         Total SCF energy =   -816.892965073112

 Vector  109  Occ=0.000000D+00  E= 1.899864D-01

 Vector  110  Occ=0.000000D+00  E= 1.933550D-01

 Vector  111  Occ=0.000000D+00  E= 1.980241D-01

 Vector  112  Occ=0.000000D+00  E= 2.004931D-01

 Vector  113  Occ=0.000000D+00  E= 2.045326D-01

 Vector  114  Occ=0.000000D+00  E= 2.056101D-01

 Vector  115  Occ=0.000000D+00  E= 2.091151D-01

 Vector  116  Occ=0.000000D+00  E= 2.106642D-01

 Vector  117  Occ=0.000000D+00  E= 2.168020D-01

 Vector  118  Occ=0.000000D+00  E= 2.188695D-01

 Vector  119  Occ=0.000000D+00  E= 2.249346D-01

 Vector  120  Occ=0.000000D+00  E= 2.265102D-01

 Vector  121  Occ=0.000000D+00  E= 2.283132D-01

 Vector  122  Occ=0.000000D+00  E= 2.336766D-01

 Vector  123  Occ=0.000000D+00  E= 2.393249D-01

 Vector  124  Occ=0.000000D+00  E= 2.410190D-01

 Vector  125  Occ=0.000000D+00  E= 2.435624D-01

 Vector  126  Occ=0.000000D+00  E= 2.477898D-01

 Vector  127  Occ=0.000000D+00  E= 2.504333D-01

 Vector  128  Occ=0.000000D+00  E= 2.581030D-01

 Vector  129  Occ=0.000000D+00  E= 2.590542D-01

 Vector  130  Occ=0.000000D+00  E= 2.644839D-01

 Vector  131  Occ=0.000000D+00  E= 2.707938D-01

 Vector  132  Occ=0.000000D+00  E= 2.757118D-01

 Vector  133  Occ=0.000000D+00  E= 2.907685D-01

 Vector  134  Occ=0.000000D+00  E= 2.950631D-01

 Vector  135  Occ=0.000000D+00  E= 3.012660D-01

 Vector  136  Occ=0.000000D+00  E= 3.042966D-01

 Vector  137  Occ=0.000000D+00  E= 3.127059D-01

 Vector  138  Occ=0.000000D+00  E= 3.169628D-01

 Vector  139  Occ=0.000000D+00  E= 3.194871D-01

 Vector  140  Occ=0.000000D+00  E= 3.250696D-01

 Vector  141  Occ=0.000000D+00  E= 3.299258D-01

 Vector  142  Occ=0.000000D+00  E= 3.346275D-01

 Vector  143  Occ=0.000000D+00  E= 3.379411D-01

 Vector  144  Occ=0.000000D+00  E= 3.423654D-01

 Vector  145  Occ=0.000000D+00  E= 3.433234D-01

 Vector  146  Occ=0.000000D+00  E= 3.489932D-01

 Vector  147  Occ=0.000000D+00  E= 3.547653D-01

 Vector  148  Occ=0.000000D+00  E= 3.569356D-01

 Vector  149  Occ=0.000000D+00  E= 3.596110D-01

 Vector  150  Occ=0.000000D+00  E= 3.611523D-01

 Vector  151  Occ=0.000000D+00  E= 3.654927D-01

 Vector  152  Occ=0.000000D+00  E= 3.705524D-01

 Vector  153  Occ=0.000000D+00  E= 3.727051D-01

 Vector  154  Occ=0.000000D+00  E= 3.767437D-01

 Vector  155  Occ=0.000000D+00  E= 3.792018D-01

 Vector  156  Occ=0.000000D+00  E= 3.872014D-01

 Vector  157  Occ=0.000000D+00  E= 3.904576D-01

 Vector  158  Occ=0.000000D+00  E= 3.939031D-01

 Vector  159  Occ=0.000000D+00  E= 3.951238D-01

 Vector  160  Occ=0.000000D+00  E= 4.036659D-01

 Vector  161  Occ=0.000000D+00  E= 4.040432D-01

 Vector  162  Occ=0.000000D+00  E= 4.064181D-01

 Vector  163  Occ=0.000000D+00  E= 4.082203D-01

 Vector  164  Occ=0.000000D+00  E= 4.112462D-01

 Vector  165  Occ=0.000000D+00  E= 4.124651D-01

 Vector  166  Occ=0.000000D+00  E= 4.217424D-01

 Vector  167  Occ=0.000000D+00  E= 4.236040D-01

 Vector  168  Occ=0.000000D+00  E= 4.264097D-01

 Vector  169  Occ=0.000000D+00  E= 4.288869D-01

 Vector  170  Occ=0.000000D+00  E= 4.315472D-01

 Vector  171  Occ=0.000000D+00  E= 4.357017D-01

 Vector  172  Occ=0.000000D+00  E= 4.408233D-01

 Vector  173  Occ=0.000000D+00  E= 4.432758D-01

 Vector  174  Occ=0.000000D+00  E= 4.487230D-01

 Vector  175  Occ=0.000000D+00  E= 4.522292D-01

 Vector  176  Occ=0.000000D+00  E= 4.530578D-01

 Vector  177  Occ=0.000000D+00  E= 4.610491D-01

 Vector  178  Occ=0.000000D+00  E= 4.632788D-01

 Vector  179  Occ=0.000000D+00  E= 4.653348D-01

 Vector  180  Occ=0.000000D+00  E= 4.725186D-01

 Vector  181  Occ=0.000000D+00  E= 4.753596D-01

 Vector  182  Occ=0.000000D+00  E= 4.791178D-01

 Vector  183  Occ=0.000000D+00  E= 4.838999D-01

 Vector  184  Occ=0.000000D+00  E= 4.858384D-01

 Vector  185  Occ=0.000000D+00  E= 4.925640D-01

 Vector  186  Occ=0.000000D+00  E= 4.935365D-01

 Vector  187  Occ=0.000000D+00  E= 4.968662D-01

 Vector  188  Occ=0.000000D+00  E= 5.033456D-01

       Multipole analysis of the density wrt the origin
       ------------------------------------------------

     L   x y z        total         open         nuclear
     -   - - -        -----         ----         -------
     0   0 0 0      0.000000      0.000000    132.000000

     1   1 0 0     -0.543786      0.000000     -0.000000
     1   0 1 0     -2.618392      0.000000      0.000000
     1   0 0 1     -1.084903      0.000000     -0.000000

     2   2 0 0    -73.143119      0.000000   1763.790574
     2   1 1 0     -0.471937      0.000000    -44.445790
     2   1 0 1      4.027954      0.000000     11.557831
     2   0 2 0    -76.007711      0.000000   2342.988072
     2   0 1 1     -3.223693      0.000000     -2.702897

 Total times  cpu:     6293.1s     wall:     6594.1s
