 Output coordinates in angstroms (scale by  1.889725989 to convert to a.u.)

  No.       Tag          Charge          X              Y              Z
 ---- ---------------- ---------- -------------- -------------- --------------
    1 H                    1.0000    -3.58895541    -2.52835527     2.05612078
    2 C                    6.0000    -2.65609726    -2.00863307     2.26712438
    3 H                    1.0000    -2.19876541    -2.43726136     3.15799495
    4 H                    1.0000    -2.84929043    -0.94936910     2.42978426
    5 C                    6.0000    -1.71327691    -2.17971834     1.10124934
    6 O                    8.0000    -0.63061195    -2.72700671     1.25894852
    7 N                    7.0000    -2.10984953    -1.67642597    -0.06853267
    8 H                    1.0000    -3.01099590    -1.23032516    -0.10909483
    9 C                    6.0000    -1.37972664    -1.84060499    -1.33399733
   10 H                    1.0000    -1.26244218    -2.90948944    -1.52103577
   11 C                    6.0000    -2.24960757    -1.25305850    -2.45235474
   12 H                    1.0000    -1.76469836    -1.41921186    -3.41604407
   13 H                    1.0000    -3.22517269    -1.74024016    -2.46421712
   14 H                    1.0000    -2.37761255    -0.17877551    -2.30379911
   15 C                    6.0000     0.04509812    -1.23602369    -1.36065900
   16 O                    8.0000     0.79946799    -1.49342880    -2.29385121
   17 N                    7.0000     0.42390090    -0.44973720    -0.34906865
   18 H                    1.0000    -0.24305453    -0.27933249     0.38437711
   19 C                    6.0000     1.77734170     0.09048313    -0.17465821
   20 H                    1.0000     2.13320526     0.45019349    -1.14127528
   21 C                    6.0000     1.71208088     1.28376283     0.79438750
   22 H                    1.0000     1.56424886     0.90156578     1.80591807
   23 H                    1.0000     2.67346013     1.79831109     0.77883034
   24 C                    6.0000     0.61880540     2.29327256     0.48321897
   25 C                    6.0000     0.65552931     3.02467759    -0.71862130
   26 H                    1.0000     1.47179184     2.88254316    -1.41316740
   27 C                    6.0000    -0.37003143     3.93714241    -1.02250963
   28 H                    1.0000    -0.33769801     4.49784377    -1.94642009
   29 C                    6.0000    -1.43427700     4.12394351    -0.12346586
   30 H                    1.0000    -2.22031638     4.83105197    -0.35619043
   31 C                    6.0000    -1.47358169     3.39762892     1.07902790
   32 H                    1.0000    -2.28777893     3.54979029     1.77401550
   33 C                    6.0000    -0.44930855     2.48333617     1.38288858
   34 H                    1.0000    -0.48071495     1.93230247     2.31166493
   35 C                    6.0000     2.80434996    -0.94950737     0.31882208
   36 O                    8.0000     3.99766283    -0.67550388     0.34159270
   37 N                    7.0000     2.38331192    -2.13697215     0.74286023
   38 H                    1.0000     3.07025514    -2.80387213     1.05144803
   39 H                    1.0000     1.39705061    -2.35811415     0.74804166

         Total SCF energy =   -929.348295865984

 Vector  128  Occ=0.000000D+00  E= 2.078177D-01

 Vector  129  Occ=0.000000D+00  E= 2.105140D-01

 Vector  130  Occ=0.000000D+00  E= 2.132717D-01

 Vector  131  Occ=0.000000D+00  E= 2.169100D-01

 Vector  132  Occ=0.000000D+00  E= 2.201928D-01

 Vector  133  Occ=0.000000D+00  E= 2.248144D-01

 Vector  134  Occ=0.000000D+00  E= 2.280511D-01

 Vector  135  Occ=0.000000D+00  E= 2.302270D-01

 Vector  136  Occ=0.000000D+00  E= 2.335177D-01

 Vector  137  Occ=0.000000D+00  E= 2.411110D-01

 Vector  138  Occ=0.000000D+00  E= 2.447343D-01

 Vector  139  Occ=0.000000D+00  E= 2.464867D-01

 Vector  140  Occ=0.000000D+00  E= 2.543851D-01

 Vector  141  Occ=0.000000D+00  E= 2.600894D-01

 Vector  142  Occ=0.000000D+00  E= 2.646474D-01

 Vector  143  Occ=0.000000D+00  E= 2.662048D-01

 Vector  144  Occ=0.000000D+00  E= 2.750409D-01

 Vector  145  Occ=0.000000D+00  E= 2.773423D-01

 Vector  146  Occ=0.000000D+00  E= 2.790585D-01

 Vector  147  Occ=0.000000D+00  E= 2.893916D-01

 Vector  148  Occ=0.000000D+00  E= 2.938638D-01

 Vector  149  Occ=0.000000D+00  E= 2.978225D-01

 Vector  150  Occ=0.000000D+00  E= 3.027894D-01

 Vector  151  Occ=0.000000D+00  E= 3.054610D-01

 Vector  152  Occ=0.000000D+00  E= 3.088136D-01

 Vector  153  Occ=0.000000D+00  E= 3.125973D-01

 Vector  154  Occ=0.000000D+00  E= 3.164030D-01

 Vector  155  Occ=0.000000D+00  E= 3.200461D-01

 Vector  156  Occ=0.000000D+00  E= 3.242703D-01

 Vector  157  Occ=0.000000D+00  E= 3.257344D-01

 Vector  158  Occ=0.000000D+00  E= 3.295451D-01

 Vector  159  Occ=0.000000D+00  E= 3.332600D-01

 Vector  160  Occ=0.000000D+00  E= 3.365007D-01

 Vector  161  Occ=0.000000D+00  E= 3.374252D-01

 Vector  162  Occ=0.000000D+00  E= 3.427570D-01

 Vector  163  Occ=0.000000D+00  E= 3.500361D-01

 Vector  164  Occ=0.000000D+00  E= 3.533809D-01

 Vector  165  Occ=0.000000D+00  E= 3.599925D-01

 Vector  166  Occ=0.000000D+00  E= 3.622830D-01

 Vector  167  Occ=0.000000D+00  E= 3.652532D-01

 Vector  168  Occ=0.000000D+00  E= 3.724996D-01

 Vector  169  Occ=0.000000D+00  E= 3.738199D-01

 Vector  170  Occ=0.000000D+00  E= 3.754116D-01

 Vector  171  Occ=0.000000D+00  E= 3.799469D-01

 Vector  172  Occ=0.000000D+00  E= 3.820529D-01

 Vector  173  Occ=0.000000D+00  E= 3.882292D-01

 Vector  174  Occ=0.000000D+00  E= 3.903412D-01

 Vector  175  Occ=0.000000D+00  E= 3.929311D-01

 Vector  176  Occ=0.000000D+00  E= 3.965174D-01

 Vector  177  Occ=0.000000D+00  E= 3.974181D-01

 Vector  178  Occ=0.000000D+00  E= 4.001494D-01

 Vector  179  Occ=0.000000D+00  E= 4.021496D-01

 Vector  180  Occ=0.000000D+00  E= 4.051848D-01

 Vector  181  Occ=0.000000D+00  E= 4.079968D-01

 Vector  182  Occ=0.000000D+00  E= 4.106656D-01

 Vector  183  Occ=0.000000D+00  E= 4.170664D-01

 Vector  184  Occ=0.000000D+00  E= 4.204313D-01

 Vector  185  Occ=0.000000D+00  E= 4.226329D-01

 Vector  186  Occ=0.000000D+00  E= 4.252111D-01

 Vector  187  Occ=0.000000D+00  E= 4.282281D-01

 Vector  188  Occ=0.000000D+00  E= 4.298972D-01

 Vector  189  Occ=0.000000D+00  E= 4.351662D-01

 Vector  190  Occ=0.000000D+00  E= 4.402771D-01

 Vector  191  Occ=0.000000D+00  E= 4.409952D-01

 Vector  192  Occ=0.000000D+00  E= 4.421201D-01

 Vector  193  Occ=0.000000D+00  E= 4.469126D-01

 Vector  194  Occ=0.000000D+00  E= 4.489044D-01

 Vector  195  Occ=0.000000D+00  E= 4.528402D-01

 Vector  196  Occ=0.000000D+00  E= 4.551071D-01

 Vector  197  Occ=0.000000D+00  E= 4.573363D-01

 Vector  198  Occ=0.000000D+00  E= 4.595725D-01

 Vector  199  Occ=0.000000D+00  E= 4.648128D-01

 Vector  200  Occ=0.000000D+00  E= 4.737044D-01

 Vector  201  Occ=0.000000D+00  E= 4.786038D-01

 Vector  202  Occ=0.000000D+00  E= 4.802406D-01

 Vector  203  Occ=0.000000D+00  E= 4.860745D-01

 Vector  204  Occ=0.000000D+00  E= 4.896106D-01

 Vector  205  Occ=0.000000D+00  E= 4.927636D-01

 Vector  206  Occ=0.000000D+00  E= 4.968761D-01

 Vector  207  Occ=0.000000D+00  E= 5.032658D-01

       Multipole analysis of the density wrt the origin
       ------------------------------------------------

     L   x y z        total         open         nuclear
     -   - - -        -----         ----         -------
     0   0 0 0     -0.000000      0.000000    148.000000

     1   1 0 0     -3.810305      0.000000     -0.000000
     1   0 1 0      0.576666      0.000000     -0.000000
     1   0 0 1      0.805539      0.000000     -0.000000

     2   2 0 0    -94.668575      0.000000   1856.920956
     2   1 1 0      5.317216      0.000000     19.922520
     2   1 0 1      0.560188      0.000000      2.137475
     2   0 2 0    -88.416854      0.000000   2653.398206
     2   0 1 1     -4.808918      0.000000    -12.697999

 Total times  cpu:     6518.1s     wall:     6613.0s
