 Output coordinates in angstroms (scale by  1.889725989 to convert to a.u.)

  No.       Tag          Charge          X              Y              Z
 ---- ---------------- ---------- -------------- -------------- --------------
    1 H                    1.0000     0.28458878     4.40593847    -1.34962474
    2 C                    6.0000     0.26765495     4.47341304    -0.26304229
    3 H                    1.0000    -0.39437068     5.27720315     0.05098723
    4 H                    1.0000     1.27491089     4.66316972     0.10582337
    5 C                    6.0000    -0.22406657     3.16415207     0.30765172
    6 O                    8.0000     0.49701233     2.50650248     1.04646106
    7 N                    7.0000    -1.45528157     2.78957762    -0.03356025
    8 H                    1.0000    -1.96986062     3.36333226    -0.67870287
    9 C                    6.0000    -2.02199726     1.49162823     0.33307269
   10 H                    1.0000    -1.85918605     1.33774472     1.40181372
   11 C                    6.0000    -3.53384993     1.51635124     0.07582517
   12 H                    1.0000    -3.99463701     2.32514311     0.64608122
   13 H                    1.0000    -3.72822163     1.66540004    -0.98712266
   14 H                    1.0000    -3.97515551     0.56903882     0.38795106
   15 C                    6.0000    -1.33292641     0.33774497    -0.42199803
   16 O                    8.0000    -0.96905466     0.47773004    -1.58892714
   17 N                    7.0000    -1.18294027    -0.81599381     0.23561049
   18 H                    1.0000    -1.55293305    -0.89196671     1.17145741
   19 C                    6.0000    -0.48937520    -1.99825921    -0.29305296
   20 H                    1.0000    -0.50706114    -1.96487069    -1.38325588
   21 C                    6.0000     0.98255856    -2.01367329     0.16497261
   22 H                    1.0000     1.02101893    -2.12678276     1.24934526
   23 H                    1.0000     1.48130699    -2.87254897    -0.28618874
   24 C                    6.0000     1.75610054    -0.74965511    -0.22228936
   25 H                    1.0000     1.63562406    -0.56848321    -1.29136941
   26 H                    1.0000     1.33323958     0.09795195     0.31786699
   27 S                   16.0000     3.52629484    -0.82027571     0.15397502
   28 C                    6.0000     3.93407476     0.92275339    -0.12415102
   29 H                    1.0000     4.99462919     1.08467735     0.07029672
   30 H                    1.0000     3.70947398     1.19178146    -1.15671501
   31 H                    1.0000     3.34423930     1.54775117     0.54735841
   32 C                    6.0000    -1.19482210    -3.28922284     0.14579391
   33 O                    8.0000    -1.90837344    -3.31473893     1.14189552
   34 N                    7.0000    -0.99993443    -4.38438668    -0.57609524
   35 H                    1.0000    -0.40944131    -4.36036571    -1.39060544
   36 H                    1.0000    -1.45857019    -5.23142641    -0.28281222

         Total SCF energy =  -1175.386271812306

 Vector  113  Occ=0.000000D+00  E= 1.929681D-01

 Vector  114  Occ=0.000000D+00  E= 1.947318D-01

 Vector  115  Occ=0.000000D+00  E= 1.978745D-01

 Vector  116  Occ=0.000000D+00  E= 2.040764D-01

 Vector  117  Occ=0.000000D+00  E= 2.048283D-01

 Vector  118  Occ=0.000000D+00  E= 2.104627D-01

 Vector  119  Occ=0.000000D+00  E= 2.110945D-01

 Vector  120  Occ=0.000000D+00  E= 2.118264D-01

 Vector  121  Occ=0.000000D+00  E= 2.185625D-01

 Vector  122  Occ=0.000000D+00  E= 2.198402D-01

 Vector  123  Occ=0.000000D+00  E= 2.247643D-01

 Vector  124  Occ=0.000000D+00  E= 2.273059D-01

 Vector  125  Occ=0.000000D+00  E= 2.299855D-01

 Vector  126  Occ=0.000000D+00  E= 2.319472D-01

 Vector  127  Occ=0.000000D+00  E= 2.376505D-01

 Vector  128  Occ=0.000000D+00  E= 2.421742D-01

 Vector  129  Occ=0.000000D+00  E= 2.459993D-01

 Vector  130  Occ=0.000000D+00  E= 2.482637D-01

 Vector  131  Occ=0.000000D+00  E= 2.560280D-01

 Vector  132  Occ=0.000000D+00  E= 2.578623D-01

 Vector  133  Occ=0.000000D+00  E= 2.654027D-01

 Vector  134  Occ=0.000000D+00  E= 2.680397D-01

 Vector  135  Occ=0.000000D+00  E= 2.698322D-01

 Vector  136  Occ=0.000000D+00  E= 2.716622D-01

 Vector  137  Occ=0.000000D+00  E= 2.850898D-01

 Vector  138  Occ=0.000000D+00  E= 2.874896D-01

 Vector  139  Occ=0.000000D+00  E= 2.970313D-01

 Vector  140  Occ=0.000000D+00  E= 3.004996D-01

 Vector  141  Occ=0.000000D+00  E= 3.046569D-01

 Vector  142  Occ=0.000000D+00  E= 3.077829D-01

 Vector  143  Occ=0.000000D+00  E= 3.192145D-01

 Vector  144  Occ=0.000000D+00  E= 3.198839D-01

 Vector  145  Occ=0.000000D+00  E= 3.263286D-01

 Vector  146  Occ=0.000000D+00  E= 3.303946D-01

 Vector  147  Occ=0.000000D+00  E= 3.315149D-01

 Vector  148  Occ=0.000000D+00  E= 3.381261D-01

 Vector  149  Occ=0.000000D+00  E= 3.406637D-01

 Vector  150  Occ=0.000000D+00  E= 3.472838D-01

 Vector  151  Occ=0.000000D+00  E= 3.512861D-01

 Vector  152  Occ=0.000000D+00  E= 3.526515D-01

 Vector  153  Occ=0.000000D+00  E= 3.600994D-01

 Vector  154  Occ=0.000000D+00  E= 3.618679D-01

 Vector  155  Occ=0.000000D+00  E= 3.658194D-01

 Vector  156  Occ=0.000000D+00  E= 3.668963D-01

 Vector  157  Occ=0.000000D+00  E= 3.715283D-01

 Vector  158  Occ=0.000000D+00  E= 3.746127D-01

 Vector  159  Occ=0.000000D+00  E= 3.776485D-01

 Vector  160  Occ=0.000000D+00  E= 3.819957D-01

 Vector  161  Occ=0.000000D+00  E= 3.901044D-01

 Vector  162  Occ=0.000000D+00  E= 3.924548D-01

 Vector  163  Occ=0.000000D+00  E= 3.984151D-01

 Vector  164  Occ=0.000000D+00  E= 4.026504D-01

 Vector  165  Occ=0.000000D+00  E= 4.055137D-01

 Vector  166  Occ=0.000000D+00  E= 4.091273D-01

 Vector  167  Occ=0.000000D+00  E= 4.105592D-01

 Vector  168  Occ=0.000000D+00  E= 4.169010D-01

 Vector  169  Occ=0.000000D+00  E= 4.197788D-01

 Vector  170  Occ=0.000000D+00  E= 4.219270D-01

 Vector  171  Occ=0.000000D+00  E= 4.258267D-01

 Vector  172  Occ=0.000000D+00  E= 4.301135D-01

 Vector  173  Occ=0.000000D+00  E= 4.314908D-01

 Vector  174  Occ=0.000000D+00  E= 4.349976D-01

 Vector  175  Occ=0.000000D+00  E= 4.395276D-01

 Vector  176  Occ=0.000000D+00  E= 4.419436D-01

 Vector  177  Occ=0.000000D+00  E= 4.469464D-01

 Vector  178  Occ=0.000000D+00  E= 4.490125D-01

 Vector  179  Occ=0.000000D+00  E= 4.541091D-01

 Vector  180  Occ=0.000000D+00  E= 4.558454D-01

 Vector  181  Occ=0.000000D+00  E= 4.577780D-01

 Vector  182  Occ=0.000000D+00  E= 4.637623D-01

 Vector  183  Occ=0.000000D+00  E= 4.654036D-01

 Vector  184  Occ=0.000000D+00  E= 4.704195D-01

 Vector  185  Occ=0.000000D+00  E= 4.728661D-01

 Vector  186  Occ=0.000000D+00  E= 4.808636D-01

 Vector  187  Occ=0.000000D+00  E= 4.827546D-01

 Vector  188  Occ=0.000000D+00  E= 4.854955D-01

 Vector  189  Occ=0.000000D+00  E= 4.925603D-01

 Vector  190  Occ=0.000000D+00  E= 4.956802D-01

 Vector  191  Occ=0.000000D+00  E= 4.998691D-01

 Vector  192  Occ=0.000000D+00  E= 5.031508D-01

       Multipole analysis of the density wrt the origin
       ------------------------------------------------

     L   x y z        total         open         nuclear
     -   - - -        -----         ----         -------
     0   0 0 0     -0.000000      0.000000    140.000000

     1   1 0 0     -1.158289      0.000000      0.000000
     1   0 1 0      0.479328      0.000000      0.000000
     1   0 0 1     -1.026438      0.000000      0.000000

     2   2 0 0    -84.946680      0.000000   2230.526998
     2   1 1 0     -3.856028      0.000000     -3.970134
     2   1 0 1     -1.154602      0.000000     -8.932841
     2   0 2 0    -62.445219      0.000000   2977.714934
     2   0 1 1      5.720028      0.000000      3.642087

 Total times  cpu:     4188.6s     wall:     4312.9s
