 Output coordinates in angstroms (scale by  1.889725989 to convert to a.u.)

  No.       Tag          Charge          X              Y              Z
 ---- ---------------- ---------- -------------- -------------- --------------
    1 H                    1.0000    -1.75328887     4.76119585     1.31719755
    2 C                    6.0000    -0.73279764     4.60538161     0.97171012
    3 H                    1.0000    -0.06217946     4.55770968     1.82873967
    4 H                    1.0000    -0.44118960     5.42114558     0.31355824
    5 C                    6.0000    -0.66603905     3.30096301     0.21435855
    6 O                    8.0000    -1.66994047     2.61227186     0.08084658
    7 N                    7.0000     0.51772747     2.95789069    -0.28839806
    8 H                    1.0000     1.30903829     3.55222891    -0.11024571
    9 C                    6.0000     0.74883970     1.67982206    -0.95884994
   10 H                    1.0000    -0.03678867     1.53785158    -1.70383749
   11 C                    6.0000     2.09565183     1.73463894    -1.69030135
   12 H                    1.0000     2.90424013     1.88023681    -0.97312897
   13 H                    1.0000     2.26016992     0.79863880    -2.22583337
   14 H                    1.0000     2.09482064     2.55610938    -2.40804966
   15 C                    6.0000     0.68488907     0.50430655     0.03541491
   16 O                    8.0000     1.31873512     0.53689509     1.09110766
   17 N                    7.0000    -0.04348578    -0.55720327    -0.31787957
   18 H                    1.0000    -0.54464762    -0.52642557    -1.19455941
   19 C                    6.0000    -0.26756387    -1.75511648     0.51281408
   20 H                    1.0000    -0.41470580    -1.43275195     1.54347376
   21 C                    6.0000    -1.55061085    -2.47990530     0.06723848
   22 H                    1.0000    -1.69205175    -3.36581800     0.68711521
   23 C                    6.0000    -2.79794193    -1.60418643     0.19126933
   24 H                    1.0000    -2.73455698    -0.74598215    -0.47756156
   25 H                    1.0000    -3.67693376    -2.19339150    -0.07343758
   26 H                    1.0000    -2.90230676    -1.25468669     1.21864264
   27 O                    8.0000    -1.43183822    -2.87376166    -1.27942452
   28 H                    1.0000    -0.74915460    -3.55908449    -1.29407712
   29 C                    6.0000     0.94144833    -2.70714252     0.51452057
   30 O                    8.0000     0.84928713    -3.86368025     0.11368793
   31 N                    7.0000     2.11002179    -2.23471509     0.92275262
   32 H                    1.0000     2.17511598    -1.26989354     1.22252940
   33 H                    1.0000     2.90937266    -2.84525790     0.91535966

         Total SCF energy =   -813.700560010668

 Vector   93  Occ=0.000000D+00  E= 1.677045D-01

 Vector   94  Occ=0.000000D+00  E= 1.688270D-01

 Vector   95  Occ=0.000000D+00  E= 1.721928D-01

 Vector   96  Occ=0.000000D+00  E= 1.746909D-01

 Vector   97  Occ=0.000000D+00  E= 1.773929D-01

 Vector   98  Occ=0.000000D+00  E= 1.784478D-01

 Vector   99  Occ=0.000000D+00  E= 1.799689D-01

 Vector  100  Occ=0.000000D+00  E= 1.846144D-01

 Vector  101  Occ=0.000000D+00  E= 1.875033D-01

 Vector  102  Occ=0.000000D+00  E= 1.904981D-01

 Vector  103  Occ=0.000000D+00  E= 1.934018D-01

 Vector  104  Occ=0.000000D+00  E= 1.985362D-01

 Vector  105  Occ=0.000000D+00  E= 2.055032D-01

 Vector  106  Occ=0.000000D+00  E= 2.076815D-01

 Vector  107  Occ=0.000000D+00  E= 2.125409D-01

 Vector  108  Occ=0.000000D+00  E= 2.138484D-01

 Vector  109  Occ=0.000000D+00  E= 2.205079D-01

 Vector  110  Occ=0.000000D+00  E= 2.218523D-01

 Vector  111  Occ=0.000000D+00  E= 2.308383D-01

 Vector  112  Occ=0.000000D+00  E= 2.347239D-01

 Vector  113  Occ=0.000000D+00  E= 2.362351D-01

 Vector  114  Occ=0.000000D+00  E= 2.407102D-01

 Vector  115  Occ=0.000000D+00  E= 2.442267D-01

 Vector  116  Occ=0.000000D+00  E= 2.506123D-01

 Vector  117  Occ=0.000000D+00  E= 2.572146D-01

 Vector  118  Occ=0.000000D+00  E= 2.624864D-01

 Vector  119  Occ=0.000000D+00  E= 2.687802D-01

 Vector  120  Occ=0.000000D+00  E= 2.710657D-01

 Vector  121  Occ=0.000000D+00  E= 2.806885D-01

 Vector  122  Occ=0.000000D+00  E= 2.881257D-01

 Vector  123  Occ=0.000000D+00  E= 2.917340D-01

 Vector  124  Occ=0.000000D+00  E= 2.932811D-01

 Vector  125  Occ=0.000000D+00  E= 3.017421D-01

 Vector  126  Occ=0.000000D+00  E= 3.076280D-01

 Vector  127  Occ=0.000000D+00  E= 3.127702D-01

 Vector  128  Occ=0.000000D+00  E= 3.203858D-01

 Vector  129  Occ=0.000000D+00  E= 3.246214D-01

 Vector  130  Occ=0.000000D+00  E= 3.267377D-01

 Vector  131  Occ=0.000000D+00  E= 3.297328D-01

 Vector  132  Occ=0.000000D+00  E= 3.376088D-01

 Vector  133  Occ=0.000000D+00  E= 3.411478D-01

 Vector  134  Occ=0.000000D+00  E= 3.464385D-01

 Vector  135  Occ=0.000000D+00  E= 3.526730D-01

 Vector  136  Occ=0.000000D+00  E= 3.582107D-01

 Vector  137  Occ=0.000000D+00  E= 3.632861D-01

 Vector  138  Occ=0.000000D+00  E= 3.662111D-01

 Vector  139  Occ=0.000000D+00  E= 3.674322D-01

 Vector  140  Occ=0.000000D+00  E= 3.713013D-01

 Vector  141  Occ=0.000000D+00  E= 3.733011D-01

 Vector  142  Occ=0.000000D+00  E= 3.796873D-01

 Vector  143  Occ=0.000000D+00  E= 3.812657D-01

 Vector  144  Occ=0.000000D+00  E= 3.865801D-01

 Vector  145  Occ=0.000000D+00  E= 3.885005D-01

 Vector  146  Occ=0.000000D+00  E= 3.924193D-01

 Vector  147  Occ=0.000000D+00  E= 3.968844D-01

 Vector  148  Occ=0.000000D+00  E= 3.975771D-01

 Vector  149  Occ=0.000000D+00  E= 4.024384D-01

 Vector  150  Occ=0.000000D+00  E= 4.061951D-01

 Vector  151  Occ=0.000000D+00  E= 4.097649D-01

 Vector  152  Occ=0.000000D+00  E= 4.160605D-01

 Vector  153  Occ=0.000000D+00  E= 4.190652D-01

 Vector  154  Occ=0.000000D+00  E= 4.278362D-01

 Vector  155  Occ=0.000000D+00  E= 4.331757D-01

 Vector  156  Occ=0.000000D+00  E= 4.369908D-01

 Vector  157  Occ=0.000000D+00  E= 4.391883D-01

 Vector  158  Occ=0.000000D+00  E= 4.410685D-01

 Vector  159  Occ=0.000000D+00  E= 4.424163D-01

 Vector  160  Occ=0.000000D+00  E= 4.439656D-01

 Vector  161  Occ=0.000000D+00  E= 4.494853D-01

 Vector  162  Occ=0.000000D+00  E= 4.584814D-01

 Vector  163  Occ=0.000000D+00  E= 4.596664D-01

 Vector  164  Occ=0.000000D+00  E= 4.627147D-01

 Vector  165  Occ=0.000000D+00  E= 4.698426D-01

 Vector  166  Occ=0.000000D+00  E= 4.730832D-01

 Vector  167  Occ=0.000000D+00  E= 4.772461D-01

 Vector  168  Occ=0.000000D+00  E= 4.797774D-01

 Vector  169  Occ=0.000000D+00  E= 4.846548D-01

 Vector  170  Occ=0.000000D+00  E= 4.866520D-01

 Vector  171  Occ=0.000000D+00  E= 4.950977D-01

 Vector  172  Occ=0.000000D+00  E= 5.035838D-01

       Multipole analysis of the density wrt the origin
       ------------------------------------------------

     L   x y z        total         open         nuclear
     -   - - -        -----         ----         -------
     0   0 0 0      0.000000      0.000000    124.000000

     1   1 0 0      1.259331      0.000000      0.000000
     1   0 1 0      1.735105      0.000000      0.000000
     1   0 0 1     -0.157203      0.000000     -0.000000

     2   2 0 0    -71.426782      0.000000    951.455362
     2   1 1 0      5.679260      0.000000     32.045136
     2   1 0 1     -4.060846      0.000000    -21.872618
     2   0 2 0    -71.701967      0.000000   2950.418249
     2   0 1 1     -4.124505      0.000000     -1.674106

 Total times  cpu:     4339.5s     wall:     4515.0s
