 Output coordinates in angstroms (scale by  1.889725989 to convert to a.u.)

  No.       Tag          Charge          X              Y              Z
 ---- ---------------- ---------- -------------- -------------- --------------
    1 H                    1.0000    -1.31775399    -4.43885019    -1.62530302
    2 C                    6.0000    -0.63528192    -4.31426458    -0.78602995
    3 H                    1.0000     0.36431529    -4.63138212    -1.07970302
    4 H                    1.0000    -0.98187199    -4.90439470     0.05911782
    5 C                    6.0000    -0.59775842    -2.85492859    -0.39904745
    6 O                    8.0000    -1.26706093    -2.03429178    -1.01624141
    7 N                    7.0000     0.18397050    -2.52661541     0.62810899
    8 H                    1.0000     0.73680232    -3.24757853     1.05802312
    9 C                    6.0000     0.40439330    -1.14350657     1.05288388
   10 H                    1.0000    -0.57118890    -0.69925858     1.24358546
   11 C                    6.0000     1.19115090    -1.15533025     2.36918844
   12 H                    1.0000     1.33411139    -0.13394556     2.72460032
   13 H                    1.0000     0.64250786    -1.71755347     3.12470473
   14 H                    1.0000     2.16944704    -1.61371270     2.21349902
   15 C                    6.0000     1.13148479    -0.32307870    -0.04367715
   16 O                    8.0000     1.99623418    -0.87287783    -0.72732501
   17 N                    7.0000     0.84172096     0.98571590    -0.20417825
   18 C                    6.0000     1.52073856     1.81342049    -1.19353875
   19 H                    1.0000     1.42606569     1.38800344    -2.19367994
   20 H                    1.0000     2.57416176     1.90278109    -0.92622762
   21 C                    6.0000     0.85382282     3.18620377    -1.13445868
   22 H                    1.0000     0.00074482     3.21343356    -1.81427737
   23 H                    1.0000     1.55575015     3.98833566    -1.36304446
   24 C                    6.0000     0.36657413     3.25196120     0.31151908
   25 H                    1.0000    -0.44106809     3.97526622     0.43534512
   26 H                    1.0000     1.20196600     3.50742058     0.96533705
   27 C                    6.0000    -0.07896243     1.80978008     0.59181317
   28 H                    1.0000     0.05610523     1.60630543     1.65305668
   29 C                    6.0000    -1.57584382     1.62619795     0.26702905
   30 O                    8.0000    -2.41737343     2.23845611     0.91017122
   31 N                    7.0000    -1.95440935     0.80585969    -0.70376612
   32 H                    1.0000    -2.93985904     0.69406351    -0.87321385
   33 H                    1.0000    -1.28551630     0.22732421    -1.18990066

         Total SCF energy =   -776.683386960444

 Vector   93  Occ=0.000000D+00  E= 1.682075D-01

 Vector   94  Occ=0.000000D+00  E= 1.705064D-01

 Vector   95  Occ=0.000000D+00  E= 1.746382D-01

 Vector   96  Occ=0.000000D+00  E= 1.754661D-01

 Vector   97  Occ=0.000000D+00  E= 1.779762D-01

 Vector   98  Occ=0.000000D+00  E= 1.842292D-01

 Vector   99  Occ=0.000000D+00  E= 1.845533D-01

 Vector  100  Occ=0.000000D+00  E= 1.883734D-01

 Vector  101  Occ=0.000000D+00  E= 1.902522D-01

 Vector  102  Occ=0.000000D+00  E= 1.911162D-01

 Vector  103  Occ=0.000000D+00  E= 1.980759D-01

 Vector  104  Occ=0.000000D+00  E= 1.995306D-01

 Vector  105  Occ=0.000000D+00  E= 2.039418D-01

 Vector  106  Occ=0.000000D+00  E= 2.083612D-01

 Vector  107  Occ=0.000000D+00  E= 2.104923D-01

 Vector  108  Occ=0.000000D+00  E= 2.140775D-01

 Vector  109  Occ=0.000000D+00  E= 2.206679D-01

 Vector  110  Occ=0.000000D+00  E= 2.264655D-01

 Vector  111  Occ=0.000000D+00  E= 2.290439D-01

 Vector  112  Occ=0.000000D+00  E= 2.318768D-01

 Vector  113  Occ=0.000000D+00  E= 2.372350D-01

 Vector  114  Occ=0.000000D+00  E= 2.428460D-01

 Vector  115  Occ=0.000000D+00  E= 2.541049D-01

 Vector  116  Occ=0.000000D+00  E= 2.573070D-01

 Vector  117  Occ=0.000000D+00  E= 2.628873D-01

 Vector  118  Occ=0.000000D+00  E= 2.677129D-01

 Vector  119  Occ=0.000000D+00  E= 2.737751D-01

 Vector  120  Occ=0.000000D+00  E= 2.804065D-01

 Vector  121  Occ=0.000000D+00  E= 2.870624D-01

 Vector  122  Occ=0.000000D+00  E= 2.960550D-01

 Vector  123  Occ=0.000000D+00  E= 2.993897D-01

 Vector  124  Occ=0.000000D+00  E= 3.067847D-01

 Vector  125  Occ=0.000000D+00  E= 3.128507D-01

 Vector  126  Occ=0.000000D+00  E= 3.177828D-01

 Vector  127  Occ=0.000000D+00  E= 3.242455D-01

 Vector  128  Occ=0.000000D+00  E= 3.294768D-01

 Vector  129  Occ=0.000000D+00  E= 3.342116D-01

 Vector  130  Occ=0.000000D+00  E= 3.352409D-01

 Vector  131  Occ=0.000000D+00  E= 3.413097D-01

 Vector  132  Occ=0.000000D+00  E= 3.445147D-01

 Vector  133  Occ=0.000000D+00  E= 3.513480D-01

 Vector  134  Occ=0.000000D+00  E= 3.558116D-01

 Vector  135  Occ=0.000000D+00  E= 3.594472D-01

 Vector  136  Occ=0.000000D+00  E= 3.666188D-01

 Vector  137  Occ=0.000000D+00  E= 3.678316D-01

 Vector  138  Occ=0.000000D+00  E= 3.700487D-01

 Vector  139  Occ=0.000000D+00  E= 3.765287D-01

 Vector  140  Occ=0.000000D+00  E= 3.789661D-01

 Vector  141  Occ=0.000000D+00  E= 3.802543D-01

 Vector  142  Occ=0.000000D+00  E= 3.874022D-01

 Vector  143  Occ=0.000000D+00  E= 3.883098D-01

 Vector  144  Occ=0.000000D+00  E= 3.900490D-01

 Vector  145  Occ=0.000000D+00  E= 3.993072D-01

 Vector  146  Occ=0.000000D+00  E= 4.022611D-01

 Vector  147  Occ=0.000000D+00  E= 4.077330D-01

 Vector  148  Occ=0.000000D+00  E= 4.086997D-01

 Vector  149  Occ=0.000000D+00  E= 4.142274D-01

 Vector  150  Occ=0.000000D+00  E= 4.178212D-01

 Vector  151  Occ=0.000000D+00  E= 4.202112D-01

 Vector  152  Occ=0.000000D+00  E= 4.234061D-01

 Vector  153  Occ=0.000000D+00  E= 4.258417D-01

 Vector  154  Occ=0.000000D+00  E= 4.312260D-01

 Vector  155  Occ=0.000000D+00  E= 4.324766D-01

 Vector  156  Occ=0.000000D+00  E= 4.350746D-01

 Vector  157  Occ=0.000000D+00  E= 4.388920D-01

 Vector  158  Occ=0.000000D+00  E= 4.411426D-01

 Vector  159  Occ=0.000000D+00  E= 4.438771D-01

 Vector  160  Occ=0.000000D+00  E= 4.458257D-01

 Vector  161  Occ=0.000000D+00  E= 4.522973D-01

 Vector  162  Occ=0.000000D+00  E= 4.551425D-01

 Vector  163  Occ=0.000000D+00  E= 4.645073D-01

 Vector  164  Occ=0.000000D+00  E= 4.671510D-01

 Vector  165  Occ=0.000000D+00  E= 4.719640D-01

 Vector  166  Occ=0.000000D+00  E= 4.758532D-01

 Vector  167  Occ=0.000000D+00  E= 4.828929D-01

 Vector  168  Occ=0.000000D+00  E= 4.883686D-01

 Vector  169  Occ=0.000000D+00  E= 4.921686D-01

 Vector  170  Occ=0.000000D+00  E= 4.958937D-01

 Vector  171  Occ=0.000000D+00  E= 4.986826D-01

 Vector  172  Occ=0.000000D+00  E= 5.035607D-01

       Multipole analysis of the density wrt the origin
       ------------------------------------------------

     L   x y z        total         open         nuclear
     -   - - -        -----         ----         -------
     0   0 0 0      0.000000      0.000000    122.000000

     1   1 0 0      1.009824      0.000000     -0.000000
     1   0 1 0     -0.767554      0.000000     -0.000000
     1   0 0 1      0.641805      0.000000      0.000000

     2   2 0 0    -82.068290      0.000000    759.784106
     2   1 1 0      8.580792      0.000000     27.403164
     2   1 0 1      7.200338      0.000000     17.288385
     2   0 2 0    -61.371046      0.000000   2274.082878
     2   0 1 1     -8.251452      0.000000    -19.204371

 Total times  cpu:     4727.9s     wall:     4922.8s
