 Output coordinates in angstroms (scale by  1.889725989 to convert to a.u.)

  No.       Tag          Charge          X              Y              Z
 ---- ---------------- ---------- -------------- -------------- --------------
    1 H                    1.0000    -1.11916813    -6.03564600     0.34338648
    2 C                    6.0000    -1.10750589    -5.17319390    -0.32191148
    3 H                    1.0000    -2.11880704    -4.79061165    -0.44268319
    4 H                    1.0000    -0.70031824    -5.46151486    -1.28888317
    5 C                    6.0000    -0.23566833    -4.09843285     0.28697435
    6 O                    8.0000     0.31590383    -4.29161478     1.36226310
    7 N                    7.0000    -0.12017079    -2.96626524    -0.40225625
    8 H                    1.0000    -0.63697619    -2.86803099    -1.26352114
    9 C                    6.0000     0.65431307    -1.80257834     0.02954641
   10 H                    1.0000     0.61655626    -1.73632662     1.11758461
   11 C                    6.0000     2.11793275    -1.99308476    -0.39523557
   12 H                    1.0000     2.18477171    -2.06399896    -1.48205327
   13 H                    1.0000     2.71811924    -1.14852772    -0.05437550
   14 H                    1.0000     2.51598752    -2.90606750     0.04961825
   15 C                    6.0000     0.06346182    -0.50208093    -0.54581375
   16 O                    8.0000    -0.68401912    -0.52945925    -1.52352724
   17 N                    7.0000     0.41193815     0.64170728     0.05021627
   18 H                    1.0000     1.05504398     0.60729673     0.82994751
   19 C                    6.0000    -0.04129910     1.97938037    -0.36519279
   20 H                    1.0000    -0.14175153     1.98047377    -1.45043060
   21 C                    6.0000    -1.43433207     2.28649007     0.23316394
   22 H                    1.0000    -2.10309710     1.46800535    -0.03807416
   23 C                    6.0000    -1.43243369     2.39679906     1.76459410
   24 H                    1.0000    -1.05001885     1.47620819     2.20401569
   25 H                    1.0000    -0.81166229     3.23210688     2.09006867
   26 H                    1.0000    -2.45072315     2.55168909     2.12200794
   27 C                    6.0000    -2.04420093     3.57013078    -0.34262291
   28 H                    1.0000    -1.49138245     4.44695517    -0.00667097
   29 H                    1.0000    -2.04174598     3.52476374    -1.43227644
   30 H                    1.0000    -3.07681487     3.66159526    -0.00498301
   31 C                    6.0000     1.01335388     3.02944260     0.00377119
   32 O                    8.0000     1.75116208     2.86873112     0.96865247
   33 N                    7.0000     1.12494076     4.10989614    -0.75787737
   34 H                    1.0000     0.52174118     4.23747061    -1.55250747
   35 H                    1.0000     1.82718572     4.78830304    -0.51349632

         Total SCF energy =   -777.857780975297

 Vector   99  Occ=0.000000D+00  E= 1.785831D-01

 Vector  100  Occ=0.000000D+00  E= 1.821154D-01

 Vector  101  Occ=0.000000D+00  E= 1.837416D-01

 Vector  102  Occ=0.000000D+00  E= 1.881278D-01

 Vector  103  Occ=0.000000D+00  E= 1.905789D-01

 Vector  104  Occ=0.000000D+00  E= 1.933870D-01

 Vector  105  Occ=0.000000D+00  E= 1.952975D-01

 Vector  106  Occ=0.000000D+00  E= 2.007557D-01

 Vector  107  Occ=0.000000D+00  E= 2.055330D-01

 Vector  108  Occ=0.000000D+00  E= 2.075354D-01

 Vector  109  Occ=0.000000D+00  E= 2.086234D-01

 Vector  110  Occ=0.000000D+00  E= 2.103099D-01

 Vector  111  Occ=0.000000D+00  E= 2.148251D-01

 Vector  112  Occ=0.000000D+00  E= 2.184264D-01

 Vector  113  Occ=0.000000D+00  E= 2.198428D-01

 Vector  114  Occ=0.000000D+00  E= 2.230081D-01

 Vector  115  Occ=0.000000D+00  E= 2.277298D-01

 Vector  116  Occ=0.000000D+00  E= 2.325385D-01

 Vector  117  Occ=0.000000D+00  E= 2.405310D-01

 Vector  118  Occ=0.000000D+00  E= 2.416146D-01

 Vector  119  Occ=0.000000D+00  E= 2.477054D-01

 Vector  120  Occ=0.000000D+00  E= 2.560563D-01

 Vector  121  Occ=0.000000D+00  E= 2.588260D-01

 Vector  122  Occ=0.000000D+00  E= 2.638088D-01

 Vector  123  Occ=0.000000D+00  E= 2.672891D-01

 Vector  124  Occ=0.000000D+00  E= 2.705682D-01

 Vector  125  Occ=0.000000D+00  E= 2.843200D-01

 Vector  126  Occ=0.000000D+00  E= 2.860289D-01

 Vector  127  Occ=0.000000D+00  E= 2.975034D-01

 Vector  128  Occ=0.000000D+00  E= 3.067599D-01

 Vector  129  Occ=0.000000D+00  E= 3.116802D-01

 Vector  130  Occ=0.000000D+00  E= 3.131142D-01

 Vector  131  Occ=0.000000D+00  E= 3.146046D-01

 Vector  132  Occ=0.000000D+00  E= 3.194449D-01

 Vector  133  Occ=0.000000D+00  E= 3.250241D-01

 Vector  134  Occ=0.000000D+00  E= 3.277467D-01

 Vector  135  Occ=0.000000D+00  E= 3.340677D-01

 Vector  136  Occ=0.000000D+00  E= 3.388882D-01

 Vector  137  Occ=0.000000D+00  E= 3.462096D-01

 Vector  138  Occ=0.000000D+00  E= 3.496879D-01

 Vector  139  Occ=0.000000D+00  E= 3.542227D-01

 Vector  140  Occ=0.000000D+00  E= 3.571209D-01

 Vector  141  Occ=0.000000D+00  E= 3.602612D-01

 Vector  142  Occ=0.000000D+00  E= 3.639394D-01

 Vector  143  Occ=0.000000D+00  E= 3.704959D-01

 Vector  144  Occ=0.000000D+00  E= 3.712556D-01

 Vector  145  Occ=0.000000D+00  E= 3.757469D-01

 Vector  146  Occ=0.000000D+00  E= 3.806460D-01

 Vector  147  Occ=0.000000D+00  E= 3.832383D-01

 Vector  148  Occ=0.000000D+00  E= 3.846221D-01

 Vector  149  Occ=0.000000D+00  E= 3.878009D-01

 Vector  150  Occ=0.000000D+00  E= 3.914417D-01

 Vector  151  Occ=0.000000D+00  E= 3.923289D-01

 Vector  152  Occ=0.000000D+00  E= 3.997711D-01

 Vector  153  Occ=0.000000D+00  E= 4.028016D-01

 Vector  154  Occ=0.000000D+00  E= 4.090695D-01

 Vector  155  Occ=0.000000D+00  E= 4.153483D-01

 Vector  156  Occ=0.000000D+00  E= 4.166179D-01

 Vector  157  Occ=0.000000D+00  E= 4.185471D-01

 Vector  158  Occ=0.000000D+00  E= 4.235162D-01

 Vector  159  Occ=0.000000D+00  E= 4.289489D-01

 Vector  160  Occ=0.000000D+00  E= 4.294752D-01

 Vector  161  Occ=0.000000D+00  E= 4.347507D-01

 Vector  162  Occ=0.000000D+00  E= 4.403498D-01

 Vector  163  Occ=0.000000D+00  E= 4.451078D-01

 Vector  164  Occ=0.000000D+00  E= 4.475802D-01

 Vector  165  Occ=0.000000D+00  E= 4.522884D-01

 Vector  166  Occ=0.000000D+00  E= 4.542112D-01

 Vector  167  Occ=0.000000D+00  E= 4.588434D-01

 Vector  168  Occ=0.000000D+00  E= 4.609101D-01

 Vector  169  Occ=0.000000D+00  E= 4.654381D-01

 Vector  170  Occ=0.000000D+00  E= 4.708974D-01

 Vector  171  Occ=0.000000D+00  E= 4.743270D-01

 Vector  172  Occ=0.000000D+00  E= 4.760414D-01

 Vector  173  Occ=0.000000D+00  E= 4.795042D-01

 Vector  174  Occ=0.000000D+00  E= 4.818317D-01

 Vector  175  Occ=0.000000D+00  E= 4.875689D-01

 Vector  176  Occ=0.000000D+00  E= 4.897602D-01

 Vector  177  Occ=0.000000D+00  E= 4.992622D-01

 Vector  178  Occ=0.000000D+00  E= 5.001093D-01

       Multipole analysis of the density wrt the origin
       ------------------------------------------------

     L   x y z        total         open         nuclear
     -   - - -        -----         ----         -------
     0   0 0 0     -0.000000      0.000000    124.000000

     1   1 0 0     -0.547513      0.000000     -0.000000
     1   0 1 0      1.695972      0.000000     -0.000000
     1   0 0 1     -1.428192      0.000000      0.000000

     2   2 0 0    -73.495720      0.000000    680.730081
     2   1 1 0      2.020471      0.000000    -36.983279
     2   1 0 1     -5.363113      0.000000    -12.612874
     2   0 2 0    -65.588912      0.000000   4113.016763
     2   0 1 1      1.851449      0.000000     18.762911

 Total times  cpu:     8192.6s     wall:     8227.0s
