 Output coordinates in angstroms (scale by  1.889725989 to convert to a.u.)

  No.       Tag          Charge          X              Y              Z
 ---- ---------------- ---------- -------------- -------------- --------------
    1 H                    1.0000    -1.32154848    -4.61652935     1.71259632
    2 C                    6.0000    -0.94959842    -4.90607025     0.73150141
    3 H                    1.0000    -1.78101083    -5.02791306     0.03943441
    4 H                    1.0000    -0.39883062    -5.84238429     0.80934641
    5 C                    6.0000    -0.02082667    -3.83422482     0.21171645
    6 O                    8.0000     1.14640689    -4.10315099    -0.04201872
    7 N                    7.0000    -0.54016194    -2.61777431     0.06431893
    8 H                    1.0000    -1.50321541    -2.46635057     0.32321828
    9 C                    6.0000     0.19323997    -1.45162994    -0.42661585
   10 H                    1.0000     1.24229280    -1.55753154    -0.14843063
   11 C                    6.0000     0.09322965    -1.42362088    -1.95981982
   12 H                    1.0000    -0.95325631    -1.35237194    -2.26257340
   13 H                    1.0000     0.63186633    -0.56346534    -2.35785497
   14 H                    1.0000     0.52688515    -2.33342488    -2.37518059
   15 C                    6.0000    -0.35654060    -0.15103183     0.19994610
   16 O                    8.0000    -1.53514462    -0.11161304     0.56695118
   17 N                    7.0000     0.45533171     0.91589936     0.33585114
   18 C                    6.0000     1.87281776     0.98514958     0.00562136
   19 H                    1.0000     2.07917604     0.57488774    -0.98388886
   20 H                    1.0000     2.44683578     0.44869975     0.76175025
   21 C                    6.0000     2.23791387     2.46903229     0.03727455
   22 H                    1.0000     2.06807198     2.91042625    -0.94677327
   23 H                    1.0000     3.27054853     2.62509216     0.35271070
   24 C                    6.0000     1.24145163     3.04860967     1.04256410
   25 H                    1.0000     1.07482636     4.11426832     0.87875116
   26 H                    1.0000     1.60552249     2.87161955     2.05515528
   27 C                    6.0000    -0.02212106     2.21669710     0.80199285
   28 H                    1.0000    -0.56038553     2.09827074     1.74357533
   29 C                    6.0000    -0.95586245     2.87357047    -0.22844657
   30 O                    8.0000    -0.69795478     2.86183103    -1.42592927
   31 N                    7.0000    -2.03427970     3.49741219     0.22278699
   32 H                    1.0000    -2.25505329     3.48790687     1.20371088
   33 H                    1.0000    -2.64763748     3.92461456    -0.45267979

         Total SCF energy =   -776.684227282951

 Vector   93  Occ=0.000000D+00  E= 1.678557D-01

 Vector   94  Occ=0.000000D+00  E= 1.703608D-01

 Vector   95  Occ=0.000000D+00  E= 1.764848D-01

 Vector   96  Occ=0.000000D+00  E= 1.789948D-01

 Vector   97  Occ=0.000000D+00  E= 1.804504D-01

 Vector   98  Occ=0.000000D+00  E= 1.835811D-01

 Vector   99  Occ=0.000000D+00  E= 1.875064D-01

 Vector  100  Occ=0.000000D+00  E= 1.904305D-01

 Vector  101  Occ=0.000000D+00  E= 1.919832D-01

 Vector  102  Occ=0.000000D+00  E= 1.939735D-01

 Vector  103  Occ=0.000000D+00  E= 2.003427D-01

 Vector  104  Occ=0.000000D+00  E= 2.039890D-01

 Vector  105  Occ=0.000000D+00  E= 2.057444D-01

 Vector  106  Occ=0.000000D+00  E= 2.093503D-01

 Vector  107  Occ=0.000000D+00  E= 2.144967D-01

 Vector  108  Occ=0.000000D+00  E= 2.169163D-01

 Vector  109  Occ=0.000000D+00  E= 2.178429D-01

 Vector  110  Occ=0.000000D+00  E= 2.210430D-01

 Vector  111  Occ=0.000000D+00  E= 2.279558D-01

 Vector  112  Occ=0.000000D+00  E= 2.317628D-01

 Vector  113  Occ=0.000000D+00  E= 2.336755D-01

 Vector  114  Occ=0.000000D+00  E= 2.407204D-01

 Vector  115  Occ=0.000000D+00  E= 2.478192D-01

 Vector  116  Occ=0.000000D+00  E= 2.544551D-01

 Vector  117  Occ=0.000000D+00  E= 2.638855D-01

 Vector  118  Occ=0.000000D+00  E= 2.682797D-01

 Vector  119  Occ=0.000000D+00  E= 2.734116D-01

 Vector  120  Occ=0.000000D+00  E= 2.760861D-01

 Vector  121  Occ=0.000000D+00  E= 2.863306D-01

 Vector  122  Occ=0.000000D+00  E= 2.954481D-01

 Vector  123  Occ=0.000000D+00  E= 3.007574D-01

 Vector  124  Occ=0.000000D+00  E= 3.013156D-01

 Vector  125  Occ=0.000000D+00  E= 3.101177D-01

 Vector  126  Occ=0.000000D+00  E= 3.121807D-01

 Vector  127  Occ=0.000000D+00  E= 3.127221D-01

 Vector  128  Occ=0.000000D+00  E= 3.204866D-01

 Vector  129  Occ=0.000000D+00  E= 3.319653D-01

 Vector  130  Occ=0.000000D+00  E= 3.334487D-01

 Vector  131  Occ=0.000000D+00  E= 3.376034D-01

 Vector  132  Occ=0.000000D+00  E= 3.415348D-01

 Vector  133  Occ=0.000000D+00  E= 3.432423D-01

 Vector  134  Occ=0.000000D+00  E= 3.471635D-01

 Vector  135  Occ=0.000000D+00  E= 3.521050D-01

 Vector  136  Occ=0.000000D+00  E= 3.593812D-01

 Vector  137  Occ=0.000000D+00  E= 3.609416D-01

 Vector  138  Occ=0.000000D+00  E= 3.676490D-01

 Vector  139  Occ=0.000000D+00  E= 3.728130D-01

 Vector  140  Occ=0.000000D+00  E= 3.743771D-01

 Vector  141  Occ=0.000000D+00  E= 3.762013D-01

 Vector  142  Occ=0.000000D+00  E= 3.834788D-01

 Vector  143  Occ=0.000000D+00  E= 3.881917D-01

 Vector  144  Occ=0.000000D+00  E= 3.908721D-01

 Vector  145  Occ=0.000000D+00  E= 3.918596D-01

 Vector  146  Occ=0.000000D+00  E= 3.940275D-01

 Vector  147  Occ=0.000000D+00  E= 3.999167D-01

 Vector  148  Occ=0.000000D+00  E= 4.062377D-01

 Vector  149  Occ=0.000000D+00  E= 4.079215D-01

 Vector  150  Occ=0.000000D+00  E= 4.142219D-01

 Vector  151  Occ=0.000000D+00  E= 4.167826D-01

 Vector  152  Occ=0.000000D+00  E= 4.210639D-01

 Vector  153  Occ=0.000000D+00  E= 4.243805D-01

 Vector  154  Occ=0.000000D+00  E= 4.296919D-01

 Vector  155  Occ=0.000000D+00  E= 4.299507D-01

 Vector  156  Occ=0.000000D+00  E= 4.354825D-01

 Vector  157  Occ=0.000000D+00  E= 4.418694D-01

 Vector  158  Occ=0.000000D+00  E= 4.464951D-01

 Vector  159  Occ=0.000000D+00  E= 4.489615D-01

 Vector  160  Occ=0.000000D+00  E= 4.513182D-01

 Vector  161  Occ=0.000000D+00  E= 4.529847D-01

 Vector  162  Occ=0.000000D+00  E= 4.553817D-01

 Vector  163  Occ=0.000000D+00  E= 4.608027D-01

 Vector  164  Occ=0.000000D+00  E= 4.644222D-01

 Vector  165  Occ=0.000000D+00  E= 4.706711D-01

 Vector  166  Occ=0.000000D+00  E= 4.750854D-01

 Vector  167  Occ=0.000000D+00  E= 4.804296D-01

 Vector  168  Occ=0.000000D+00  E= 4.855194D-01

 Vector  169  Occ=0.000000D+00  E= 4.908015D-01

 Vector  170  Occ=0.000000D+00  E= 4.955332D-01

 Vector  171  Occ=0.000000D+00  E= 4.978894D-01

 Vector  172  Occ=0.000000D+00  E= 5.041229D-01

       Multipole analysis of the density wrt the origin
       ------------------------------------------------

     L   x y z        total         open         nuclear
     -   - - -        -----         ----         -------
     0   0 0 0      0.000000      0.000000    122.000000

     1   1 0 0     -0.366515      0.000000     -0.000000
     1   0 1 0      1.471366      0.000000     -0.000000
     1   0 0 1      1.248196      0.000000      0.000000

     2   2 0 0    -68.761341      0.000000    678.131890
     2   1 1 0      7.573283      0.000000     44.876987
     2   1 0 1     -0.780057      0.000000     -5.561627
     2   0 2 0    -70.851239      0.000000   3372.481937
     2   0 1 1      6.893104      0.000000     17.806525

 Total times  cpu:     4367.3s     wall:     4714.8s
