 Output coordinates in angstroms (scale by  1.889725989 to convert to a.u.)

  No.       Tag          Charge          X              Y              Z
 ---- ---------------- ---------- -------------- -------------- --------------
    1 H                    1.0000    -2.95697175     3.33981023    -0.29550540
    2 C                    6.0000    -2.00155181     3.52507158     0.19507890
    3 H                    1.0000    -2.10269312     3.34962020     1.26378571
    4 H                    1.0000    -1.69410765     4.55385232     0.01344938
    5 C                    6.0000    -0.96750865     2.58398538    -0.37446963
    6 O                    8.0000    -1.27939271     1.77588085    -1.24006850
    7 N                    7.0000     0.26370212     2.67229472     0.12337624
    8 H                    1.0000     0.43146291     3.35638701     0.84267593
    9 C                    6.0000     1.40656099     1.85658848    -0.30646901
   10 H                    1.0000     1.38245205     1.79627162    -1.39642939
   11 C                    6.0000     2.69275954     2.59744143     0.08813358
   12 H                    1.0000     2.69637920     3.59875261    -0.34429884
   13 H                    1.0000     2.76636076     2.66926090     1.17419473
   14 H                    1.0000     3.56019608     2.05130869    -0.28695158
   15 C                    6.0000     1.35263099     0.39680932     0.21378705
   16 O                    8.0000     2.29873835    -0.09348706     0.82578405
   17 N                    7.0000     0.23463083    -0.30029118    -0.01083606
   18 H                    1.0000    -0.49008432     0.16804658    -0.54624776
   19 C                    6.0000    -0.08107940    -1.65144619     0.50720467
   20 H                    1.0000     0.24515857    -1.67865886     1.54695909
   21 C                    6.0000    -1.60883640    -1.89336573     0.51364567
   22 H                    1.0000    -1.80272142    -2.87589863     0.94539408
   23 C                    6.0000    -2.32681395    -0.86943099     1.40397083
   24 H                    1.0000    -2.24890594     0.13156031     0.98103259
   25 H                    1.0000    -3.38146042    -1.13419684     1.48415105
   26 H                    1.0000    -1.88959812    -0.87785815     2.40208370
   27 C                    6.0000    -2.23906855    -1.84973956    -0.88606866
   28 H                    1.0000    -1.77180161    -2.59642665    -1.52818236
   29 H                    1.0000    -3.30253314    -2.07813698    -0.81360710
   30 H                    1.0000    -2.11896980    -0.86429138    -1.33431210
   31 C                    6.0000     0.68591352    -2.80277078    -0.17857632
   32 O                    8.0000     0.20818454    -3.92624929    -0.26880966
   33 N                    7.0000     1.88531244    -2.56246820    -0.68967796
   34 H                    1.0000     2.37817362    -3.31984977    -1.13080270
   35 H                    1.0000     2.31586708    -1.66431413    -0.53009422

         Total SCF energy =   -777.853856555166

 Vector   97  Occ=0.000000D+00  E= 1.743461D-01

 Vector   98  Occ=0.000000D+00  E= 1.771951D-01

 Vector   99  Occ=0.000000D+00  E= 1.817451D-01

 Vector  100  Occ=0.000000D+00  E= 1.834227D-01

 Vector  101  Occ=0.000000D+00  E= 1.838212D-01

 Vector  102  Occ=0.000000D+00  E= 1.887954D-01

 Vector  103  Occ=0.000000D+00  E= 1.907188D-01

 Vector  104  Occ=0.000000D+00  E= 1.946052D-01

 Vector  105  Occ=0.000000D+00  E= 1.975768D-01

 Vector  106  Occ=0.000000D+00  E= 2.001609D-01

 Vector  107  Occ=0.000000D+00  E= 2.063210D-01

 Vector  108  Occ=0.000000D+00  E= 2.105121D-01

 Vector  109  Occ=0.000000D+00  E= 2.119747D-01

 Vector  110  Occ=0.000000D+00  E= 2.181339D-01

 Vector  111  Occ=0.000000D+00  E= 2.184722D-01

 Vector  112  Occ=0.000000D+00  E= 2.234123D-01

 Vector  113  Occ=0.000000D+00  E= 2.271144D-01

 Vector  114  Occ=0.000000D+00  E= 2.287738D-01

 Vector  115  Occ=0.000000D+00  E= 2.336978D-01

 Vector  116  Occ=0.000000D+00  E= 2.402695D-01

 Vector  117  Occ=0.000000D+00  E= 2.419771D-01

 Vector  118  Occ=0.000000D+00  E= 2.460260D-01

 Vector  119  Occ=0.000000D+00  E= 2.534338D-01

 Vector  120  Occ=0.000000D+00  E= 2.618976D-01

 Vector  121  Occ=0.000000D+00  E= 2.644054D-01

 Vector  122  Occ=0.000000D+00  E= 2.688081D-01

 Vector  123  Occ=0.000000D+00  E= 2.764365D-01

 Vector  124  Occ=0.000000D+00  E= 2.770504D-01

 Vector  125  Occ=0.000000D+00  E= 2.896987D-01

 Vector  126  Occ=0.000000D+00  E= 2.971461D-01

 Vector  127  Occ=0.000000D+00  E= 3.031988D-01

 Vector  128  Occ=0.000000D+00  E= 3.081612D-01

 Vector  129  Occ=0.000000D+00  E= 3.135180D-01

 Vector  130  Occ=0.000000D+00  E= 3.165969D-01

 Vector  131  Occ=0.000000D+00  E= 3.208919D-01

 Vector  132  Occ=0.000000D+00  E= 3.283654D-01

 Vector  133  Occ=0.000000D+00  E= 3.303807D-01

 Vector  134  Occ=0.000000D+00  E= 3.343339D-01

 Vector  135  Occ=0.000000D+00  E= 3.384340D-01

 Vector  136  Occ=0.000000D+00  E= 3.418166D-01

 Vector  137  Occ=0.000000D+00  E= 3.504435D-01

 Vector  138  Occ=0.000000D+00  E= 3.527753D-01

 Vector  139  Occ=0.000000D+00  E= 3.606865D-01

 Vector  140  Occ=0.000000D+00  E= 3.625707D-01

 Vector  141  Occ=0.000000D+00  E= 3.677320D-01

 Vector  142  Occ=0.000000D+00  E= 3.717091D-01

 Vector  143  Occ=0.000000D+00  E= 3.774392D-01

 Vector  144  Occ=0.000000D+00  E= 3.776475D-01

 Vector  145  Occ=0.000000D+00  E= 3.803555D-01

 Vector  146  Occ=0.000000D+00  E= 3.836685D-01

 Vector  147  Occ=0.000000D+00  E= 3.873317D-01

 Vector  148  Occ=0.000000D+00  E= 3.898421D-01

 Vector  149  Occ=0.000000D+00  E= 3.959036D-01

 Vector  150  Occ=0.000000D+00  E= 4.017914D-01

 Vector  151  Occ=0.000000D+00  E= 4.030889D-01

 Vector  152  Occ=0.000000D+00  E= 4.073178D-01

 Vector  153  Occ=0.000000D+00  E= 4.082272D-01

 Vector  154  Occ=0.000000D+00  E= 4.134832D-01

 Vector  155  Occ=0.000000D+00  E= 4.143178D-01

 Vector  156  Occ=0.000000D+00  E= 4.183271D-01

 Vector  157  Occ=0.000000D+00  E= 4.237416D-01

 Vector  158  Occ=0.000000D+00  E= 4.280935D-01

 Vector  159  Occ=0.000000D+00  E= 4.335218D-01

 Vector  160  Occ=0.000000D+00  E= 4.368487D-01

 Vector  161  Occ=0.000000D+00  E= 4.427978D-01

 Vector  162  Occ=0.000000D+00  E= 4.458698D-01

 Vector  163  Occ=0.000000D+00  E= 4.491468D-01

 Vector  164  Occ=0.000000D+00  E= 4.542212D-01

 Vector  165  Occ=0.000000D+00  E= 4.584909D-01

 Vector  166  Occ=0.000000D+00  E= 4.594562D-01

 Vector  167  Occ=0.000000D+00  E= 4.611485D-01

 Vector  168  Occ=0.000000D+00  E= 4.687813D-01

 Vector  169  Occ=0.000000D+00  E= 4.710589D-01

 Vector  170  Occ=0.000000D+00  E= 4.754445D-01

 Vector  171  Occ=0.000000D+00  E= 4.837267D-01

 Vector  172  Occ=0.000000D+00  E= 4.865859D-01

 Vector  173  Occ=0.000000D+00  E= 4.903020D-01

 Vector  174  Occ=0.000000D+00  E= 4.936595D-01

 Vector  175  Occ=0.000000D+00  E= 4.962518D-01

 Vector  176  Occ=0.000000D+00  E= 5.034517D-01

       Multipole analysis of the density wrt the origin
       ------------------------------------------------

     L   x y z        total         open         nuclear
     -   - - -        -----         ----         -------
     0   0 0 0     -0.000000      0.000000    124.000000

     1   1 0 0      0.021399      0.000000     -0.000000
     1   0 1 0      2.961789      0.000000      0.000000
     1   0 0 1      0.415190      0.000000     -0.000000

     2   2 0 0    -71.468390      0.000000   1276.052102
     2   1 1 0     -0.413525      0.000000     26.298899
     2   1 0 1     -7.674139      0.000000    -18.874296
     2   0 2 0    -74.288964      0.000000   2330.760090
     2   0 1 1      3.363407      0.000000     13.079157

 Total times  cpu:    12178.4s     wall:    12265.7s
