 Output coordinates in angstroms (scale by  1.889725989 to convert to a.u.)

  No.       Tag          Charge          X              Y              Z
 ---- ---------------- ---------- -------------- -------------- --------------
    1 H                    1.0000    -2.43030570    -3.27251011    -1.43618141
    2 C                    6.0000    -2.37231484    -3.46735450    -0.36626612
    3 H                    1.0000    -2.16670123    -4.52085372    -0.19086823
    4 H                    1.0000    -3.31809954    -3.19806220     0.10334858
    5 C                    6.0000    -1.26867176    -2.63305161     0.23874349
    6 O                    8.0000    -1.52391361    -1.80758151     1.10587653
    7 N                    7.0000    -0.03858107    -2.83090158    -0.23118340
    8 H                    1.0000     0.07984360    -3.51964050    -0.95594495
    9 C                    6.0000     1.16990068    -2.14688829     0.24640605
   10 H                    1.0000     1.13120300    -2.12658944     1.33618880
   11 C                    6.0000     2.38527248    -2.99568188    -0.15813916
   12 H                    1.0000     2.28084140    -4.00888524     0.23272922
   13 H                    1.0000     2.47345529    -3.03167004    -1.24459516
   14 H                    1.0000     3.29445668    -2.55482253     0.25357811
   15 C                    6.0000     1.27346582    -0.66863361    -0.21444465
   16 O                    8.0000     2.28969403    -0.24392309    -0.75875081
   17 N                    7.0000     0.21451633     0.11947616    -0.01360151
   18 H                    1.0000    -0.57263052    -0.30050765     0.47270132
   19 C                    6.0000     0.05445263     1.51201880    -0.48318603
   20 H                    1.0000     0.42689497     1.54482331    -1.50751242
   21 C                    6.0000    -1.44492362     1.86349506    -0.56126484
   22 H                    1.0000    -1.93952714     1.11160816    -1.17720188
   23 C                    6.0000    -2.15766011     1.90913776     0.79229692
   24 H                    1.0000    -2.10708851     0.93481712     1.27626365
   25 H                    1.0000    -1.70692651     2.65781104     1.44324972
   26 H                    1.0000    -3.20687974     2.16367261     0.63576193
   27 O                    8.0000    -1.62467520     3.11115607    -1.17839156
   28 H                    1.0000    -1.11101027     3.74572797    -0.65529229
   29 C                    6.0000     0.88960016     2.56050278     0.28741825
   30 O                    8.0000     0.48860325     3.70939026     0.44872861
   31 N                    7.0000     2.05777262     2.20324837     0.80105954
   32 H                    1.0000     2.42812010     1.28664617     0.59228174
   33 H                    1.0000     2.59600264     2.89207358     1.29848519

         Total SCF energy =   -813.691736721508

 Vector   93  Occ=0.000000D+00  E= 1.655889D-01

 Vector   94  Occ=0.000000D+00  E= 1.680878D-01

 Vector   95  Occ=0.000000D+00  E= 1.732870D-01

 Vector   96  Occ=0.000000D+00  E= 1.766166D-01

 Vector   97  Occ=0.000000D+00  E= 1.784109D-01

 Vector   98  Occ=0.000000D+00  E= 1.802657D-01

 Vector   99  Occ=0.000000D+00  E= 1.845668D-01

 Vector  100  Occ=0.000000D+00  E= 1.858532D-01

 Vector  101  Occ=0.000000D+00  E= 1.894044D-01

 Vector  102  Occ=0.000000D+00  E= 1.939696D-01

 Vector  103  Occ=0.000000D+00  E= 1.964190D-01

 Vector  104  Occ=0.000000D+00  E= 2.018155D-01

 Vector  105  Occ=0.000000D+00  E= 2.034819D-01

 Vector  106  Occ=0.000000D+00  E= 2.067845D-01

 Vector  107  Occ=0.000000D+00  E= 2.121947D-01

 Vector  108  Occ=0.000000D+00  E= 2.153978D-01

 Vector  109  Occ=0.000000D+00  E= 2.162554D-01

 Vector  110  Occ=0.000000D+00  E= 2.218402D-01

 Vector  111  Occ=0.000000D+00  E= 2.280348D-01

 Vector  112  Occ=0.000000D+00  E= 2.322675D-01

 Vector  113  Occ=0.000000D+00  E= 2.389600D-01

 Vector  114  Occ=0.000000D+00  E= 2.473222D-01

 Vector  115  Occ=0.000000D+00  E= 2.482330D-01

 Vector  116  Occ=0.000000D+00  E= 2.556777D-01

 Vector  117  Occ=0.000000D+00  E= 2.624572D-01

 Vector  118  Occ=0.000000D+00  E= 2.695515D-01

 Vector  119  Occ=0.000000D+00  E= 2.730296D-01

 Vector  120  Occ=0.000000D+00  E= 2.800724D-01

 Vector  121  Occ=0.000000D+00  E= 2.839858D-01

 Vector  122  Occ=0.000000D+00  E= 2.885188D-01

 Vector  123  Occ=0.000000D+00  E= 2.951375D-01

 Vector  124  Occ=0.000000D+00  E= 3.040848D-01

 Vector  125  Occ=0.000000D+00  E= 3.090236D-01

 Vector  126  Occ=0.000000D+00  E= 3.150546D-01

 Vector  127  Occ=0.000000D+00  E= 3.218584D-01

 Vector  128  Occ=0.000000D+00  E= 3.241733D-01

 Vector  129  Occ=0.000000D+00  E= 3.254207D-01

 Vector  130  Occ=0.000000D+00  E= 3.287004D-01

 Vector  131  Occ=0.000000D+00  E= 3.365255D-01

 Vector  132  Occ=0.000000D+00  E= 3.387055D-01

 Vector  133  Occ=0.000000D+00  E= 3.466799D-01

 Vector  134  Occ=0.000000D+00  E= 3.492638D-01

 Vector  135  Occ=0.000000D+00  E= 3.509989D-01

 Vector  136  Occ=0.000000D+00  E= 3.592670D-01

 Vector  137  Occ=0.000000D+00  E= 3.611370D-01

 Vector  138  Occ=0.000000D+00  E= 3.645205D-01

 Vector  139  Occ=0.000000D+00  E= 3.698209D-01

 Vector  140  Occ=0.000000D+00  E= 3.765837D-01

 Vector  141  Occ=0.000000D+00  E= 3.778971D-01

 Vector  142  Occ=0.000000D+00  E= 3.834320D-01

 Vector  143  Occ=0.000000D+00  E= 3.872400D-01

 Vector  144  Occ=0.000000D+00  E= 3.890512D-01

 Vector  145  Occ=0.000000D+00  E= 3.914889D-01

 Vector  146  Occ=0.000000D+00  E= 3.951531D-01

 Vector  147  Occ=0.000000D+00  E= 3.985773D-01

 Vector  148  Occ=0.000000D+00  E= 4.015600D-01

 Vector  149  Occ=0.000000D+00  E= 4.034210D-01

 Vector  150  Occ=0.000000D+00  E= 4.103466D-01

 Vector  151  Occ=0.000000D+00  E= 4.132406D-01

 Vector  152  Occ=0.000000D+00  E= 4.174292D-01

 Vector  153  Occ=0.000000D+00  E= 4.202219D-01

 Vector  154  Occ=0.000000D+00  E= 4.219167D-01

 Vector  155  Occ=0.000000D+00  E= 4.246771D-01

 Vector  156  Occ=0.000000D+00  E= 4.292737D-01

 Vector  157  Occ=0.000000D+00  E= 4.361049D-01

 Vector  158  Occ=0.000000D+00  E= 4.394844D-01

 Vector  159  Occ=0.000000D+00  E= 4.508471D-01

 Vector  160  Occ=0.000000D+00  E= 4.523582D-01

 Vector  161  Occ=0.000000D+00  E= 4.534779D-01

 Vector  162  Occ=0.000000D+00  E= 4.586863D-01

 Vector  163  Occ=0.000000D+00  E= 4.621778D-01

 Vector  164  Occ=0.000000D+00  E= 4.686927D-01

 Vector  165  Occ=0.000000D+00  E= 4.709976D-01

 Vector  166  Occ=0.000000D+00  E= 4.740121D-01

 Vector  167  Occ=0.000000D+00  E= 4.776998D-01

 Vector  168  Occ=0.000000D+00  E= 4.848570D-01

 Vector  169  Occ=0.000000D+00  E= 4.900601D-01

 Vector  170  Occ=0.000000D+00  E= 4.919789D-01

 Vector  171  Occ=0.000000D+00  E= 4.982417D-01

 Vector  172  Occ=0.000000D+00  E= 5.061508D-01

       Multipole analysis of the density wrt the origin
       ------------------------------------------------

     L   x y z        total         open         nuclear
     -   - - -        -----         ----         -------
     0   0 0 0      0.000000      0.000000    124.000000

     1   1 0 0      0.351125      0.000000      0.000000
     1   0 1 0     -3.228091      0.000000     -0.000000
     1   0 0 1      0.054435      0.000000      0.000000

     2   2 0 0    -72.272444      0.000000   1196.660194
     2   1 1 0      4.910483      0.000000    -13.350791
     2   1 0 1      5.695047      0.000000      5.277226
     2   0 2 0    -70.902870      0.000000   2601.284300
     2   0 1 1      7.160735      0.000000     22.300197

 Total times  cpu:     4380.4s     wall:     4504.2s
