============================== echo of input deck ==============================
start ARG_LYS_3
geometry
H          3.81200        4.86500       -5.63800
C          3.21600        3.96100       -5.51700
H          3.41300        3.28800       -6.35100
H          2.16000        4.22600       -5.50700
C          3.58800        3.28200       -4.22100
O          4.47600        3.75200       -3.51500
N          2.90700        2.17400       -3.90700
H          2.22200        1.86700       -4.58600
C          3.13100        1.29800       -2.73000
H          2.22900        0.69000       -2.64100
C          4.25900        0.26800       -2.99700
H          4.32800       -0.40700       -2.14100
H          3.94100       -0.34500       -3.84200
C          5.67700        0.77600       -3.32600
H          6.28300       -0.09200       -3.59000
H          5.64100        1.42000       -4.20400
C          6.38300        1.50800       -2.17500
H          5.81900        2.39700       -1.89300
H          6.41100        0.84600       -1.30700
N          7.76400        1.88900       -2.53400
H          8.48800        1.24800       -2.25500
C          8.14900        2.98900       -3.16000
N          7.31000        3.90000       -3.56900
H          6.31300        3.76500       -3.41700
H          7.62900        4.72400       -4.03900
N          9.41500        3.19800       -3.39300
H         10.10200        2.52700       -3.09800
H          9.71000        4.03000       -3.87000
C          3.18700        2.00200       -1.35800
O          3.86600        1.53800       -0.44900
N          2.46200        3.11700       -1.19000
H          1.95600        3.44500       -1.99700
C          2.38700        3.92200        0.05200
H          3.40500        4.01900        0.43700
C          1.86700        5.33700       -0.28400
H          2.33200        5.68700       -1.20800
H          0.79100        5.29000       -0.45500
C          2.19600        6.35900        0.82600
H          2.24100        5.87200        1.80100
H          3.19200        6.75600        0.62500
C          1.20100        7.53400        0.89900
H          1.77800        8.44600        1.07100
H          0.68100        7.65900       -0.05200
C          0.18900        7.41400        2.05500
H          0.74800        7.33000        2.99300
H         -0.38800        8.34400        2.10300
N         -0.73600        6.25900        1.91800
H         -0.21800        5.38000        1.89100
H         -1.36500        6.20700        2.70900
H         -1.28600        6.32600        1.07400
C          1.56500        3.24700        1.17500
O          0.59300        3.82100        1.66500
N          1.90600        2.03400        1.57200
H          1.37000        1.58600        2.29800
H          2.70800        1.57900        1.15400
end

basis
 * library aug-cc-pvdz
end

echo

scf
 direct
end

task scf energy
================================================================================

 Output coordinates in angstroms (scale by  1.889725989 to convert to a.u.)

  No.       Tag          Charge          X              Y              Z
 ---- ---------------- ---------- -------------- -------------- --------------
    1 H                    1.0000     1.79411536    -2.04109622    -3.54244081
    2 C                    6.0000     0.71642549    -1.90482790    -3.62663404
    3 H                    1.0000     0.27700455    -2.79504076    -4.07577132
    4 H                    1.0000     0.51205277    -1.04186386    -4.25828731
    5 C                    6.0000     0.12721672    -1.68814739    -2.25370885
    6 O                    8.0000     0.85115889    -1.72533598    -1.26254551
    7 N                    7.0000    -1.18986584    -1.46039388    -2.19503292
    8 H                    1.0000    -1.68445218    -1.48754034    -3.07773469
    9 C                    6.0000    -2.00665951    -1.28532450    -0.96821598
   10 H                    1.0000    -2.94222714    -0.83231903    -1.30091444
   11 C                    6.0000    -2.43605675    -2.65167989    -0.37385587
   12 H                    1.0000    -3.10363691    -2.47249672     0.47192904
   13 H                    1.0000    -3.03599346    -3.15767615    -1.13211819
   14 C                    6.0000    -1.34999009    -3.65087427     0.07234903
   15 H                    1.0000    -1.85223975    -4.57948658     0.34763153
   16 H                    1.0000    -0.69430417    -3.87859390    -0.76737459
   17 C                    6.0000    -0.51139967    -3.19679361     1.27635810
   18 H                    1.0000     0.02555412    -2.27934422     1.03571679
   19 H                    1.0000    -1.18565544    -2.97630385     2.10654810
   20 N                    7.0000     0.44764823    -4.23735396     1.69904507
   21 H                    1.0000     0.14414623    -4.84547216     2.44132318
   22 C                    6.0000     1.66538336    -4.43819634     1.22272111
   23 N                    7.0000     2.17759053    -3.71645730     0.26467122
   24 H                    1.0000     1.62253404    -2.97180584    -0.15095419
   25 H                    1.0000     3.10271483    -3.88932053    -0.07577017
   26 N                    7.0000     2.40818817    -5.39203332     1.71176304
   27 H                    1.0000     2.06048193    -5.97642094     2.45124022
   28 H                    1.0000     3.33119024    -5.54868676     1.35078537
   29 C                    6.0000    -1.48825420    -0.25135716     0.05320630
   30 O                    8.0000    -1.71530504    -0.39230483     1.24953388
   31 N                    7.0000    -0.80320144     0.80430457    -0.40869740
   32 H                    1.0000    -0.63679505     0.82721532    -1.40200149
   33 C                    6.0000    -0.23527081     1.89630083     0.41665886
   34 H                    1.0000     0.23941580     1.43271536     1.28482885
   35 C                    6.0000     0.85785128     2.63289709    -0.38834489
   36 H                    1.0000     1.46289204     1.90515966    -0.93316129
   37 H                    1.0000     0.38210349     3.28158243    -1.12461752
   38 C                    6.0000     1.80432300     3.44669231     0.52091504
   39 H                    1.0000     1.28414353     3.78642538     1.41747165
   40 H                    1.0000     2.60035175     2.77821822     0.85183287
   41 C                    6.0000     2.44009474     4.66340916    -0.18006528
   42 H                    1.0000     3.48709591     4.71358018     0.12901142
   43 H                    1.0000     2.43220101     4.53240710    -1.26320985
   44 C                    6.0000     1.78967365     6.00630979     0.20522724
   45 H                    1.0000     1.85222744     6.11825484     1.29285600
   46 H                    1.0000     2.38208785     6.81371304    -0.23893310
   47 N                    7.0000     0.37405011     6.12795590    -0.23023942
   48 H                    1.0000    -0.19921654     5.39495573     0.18901001
   49 H                    1.0000    -0.01724645     7.01357485     0.06402590
   50 H                    1.0000     0.29032205     6.05731667    -1.23389509
   51 C                    6.0000    -1.30344881     2.86476827     0.97657366
   52 O                    8.0000    -1.24289771     4.06844967     0.72788782
   53 N                    7.0000    -2.29555275     2.37106965     1.69577493
   54 H                    1.0000    -2.99852259     2.99582956     2.05713963
   55 H                    1.0000    -2.32732390     1.37734867     1.88672570

         Total SCF energy =  -1153.942606747885

 Vector  195  Occ=0.000000D+00  E= 2.938584D-01

 Vector  196  Occ=0.000000D+00  E= 2.958011D-01

 Vector  197  Occ=0.000000D+00  E= 2.994365D-01

 Vector  198  Occ=0.000000D+00  E= 3.045054D-01

 Vector  199  Occ=0.000000D+00  E= 3.074520D-01

 Vector  200  Occ=0.000000D+00  E= 3.105963D-01

 Vector  201  Occ=0.000000D+00  E= 3.126655D-01

 Vector  202  Occ=0.000000D+00  E= 3.134788D-01

 Vector  203  Occ=0.000000D+00  E= 3.173592D-01

 Vector  204  Occ=0.000000D+00  E= 3.202865D-01

 Vector  205  Occ=0.000000D+00  E= 3.209794D-01

 Vector  206  Occ=0.000000D+00  E= 3.252042D-01

 Vector  207  Occ=0.000000D+00  E= 3.273953D-01

 Vector  208  Occ=0.000000D+00  E= 3.309352D-01

 Vector  209  Occ=0.000000D+00  E= 3.321250D-01

 Vector  210  Occ=0.000000D+00  E= 3.366735D-01

 Vector  211  Occ=0.000000D+00  E= 3.402831D-01

 Vector  212  Occ=0.000000D+00  E= 3.414326D-01

 Vector  213  Occ=0.000000D+00  E= 3.441227D-01

 Vector  214  Occ=0.000000D+00  E= 3.466742D-01

 Vector  215  Occ=0.000000D+00  E= 3.491844D-01

 Vector  216  Occ=0.000000D+00  E= 3.507952D-01

 Vector  217  Occ=0.000000D+00  E= 3.528926D-01

 Vector  218  Occ=0.000000D+00  E= 3.544300D-01

 Vector  219  Occ=0.000000D+00  E= 3.591377D-01

 Vector  220  Occ=0.000000D+00  E= 3.635942D-01

 Vector  221  Occ=0.000000D+00  E= 3.656489D-01

 Vector  222  Occ=0.000000D+00  E= 3.678486D-01

 Vector  223  Occ=0.000000D+00  E= 3.700918D-01

 Vector  224  Occ=0.000000D+00  E= 3.718494D-01

 Vector  225  Occ=0.000000D+00  E= 3.744576D-01

 Vector  226  Occ=0.000000D+00  E= 3.775152D-01

 Vector  227  Occ=0.000000D+00  E= 3.820568D-01

 Vector  228  Occ=0.000000D+00  E= 3.845635D-01

 Vector  229  Occ=0.000000D+00  E= 3.855907D-01

 Vector  230  Occ=0.000000D+00  E= 3.886438D-01

 Vector  231  Occ=0.000000D+00  E= 3.908971D-01

 Vector  232  Occ=0.000000D+00  E= 3.918964D-01

 Vector  233  Occ=0.000000D+00  E= 3.950631D-01

 Vector  234  Occ=0.000000D+00  E= 3.992945D-01

 Vector  235  Occ=0.000000D+00  E= 4.012740D-01

 Vector  236  Occ=0.000000D+00  E= 4.040533D-01

 Vector  237  Occ=0.000000D+00  E= 4.060607D-01

 Vector  238  Occ=0.000000D+00  E= 4.076437D-01

 Vector  239  Occ=0.000000D+00  E= 4.096687D-01

 Vector  240  Occ=0.000000D+00  E= 4.100715D-01

 Vector  241  Occ=0.000000D+00  E= 4.142103D-01

 Vector  242  Occ=0.000000D+00  E= 4.172013D-01

 Vector  243  Occ=0.000000D+00  E= 4.212550D-01

 Vector  244  Occ=0.000000D+00  E= 4.240480D-01

 Vector  245  Occ=0.000000D+00  E= 4.265631D-01

 Vector  246  Occ=0.000000D+00  E= 4.289397D-01

 Vector  247  Occ=0.000000D+00  E= 4.320709D-01

 Vector  248  Occ=0.000000D+00  E= 4.361958D-01

 Vector  249  Occ=0.000000D+00  E= 4.387185D-01

 Vector  250  Occ=0.000000D+00  E= 4.416499D-01

 Vector  251  Occ=0.000000D+00  E= 4.439962D-01

 Vector  252  Occ=0.000000D+00  E= 4.476161D-01

 Vector  253  Occ=0.000000D+00  E= 4.479145D-01

 Vector  254  Occ=0.000000D+00  E= 4.522326D-01

 Vector  255  Occ=0.000000D+00  E= 4.585405D-01

 Vector  256  Occ=0.000000D+00  E= 4.586649D-01

 Vector  257  Occ=0.000000D+00  E= 4.627036D-01

 Vector  258  Occ=0.000000D+00  E= 4.643253D-01

 Vector  259  Occ=0.000000D+00  E= 4.655451D-01

 Vector  260  Occ=0.000000D+00  E= 4.663821D-01

 Vector  261  Occ=0.000000D+00  E= 4.707267D-01

 Vector  262  Occ=0.000000D+00  E= 4.727778D-01

 Vector  263  Occ=0.000000D+00  E= 4.735080D-01

 Vector  264  Occ=0.000000D+00  E= 4.762855D-01

 Vector  265  Occ=0.000000D+00  E= 4.791338D-01

 Vector  266  Occ=0.000000D+00  E= 4.807895D-01

 Vector  267  Occ=0.000000D+00  E= 4.809966D-01

 Vector  268  Occ=0.000000D+00  E= 4.837715D-01

 Vector  269  Occ=0.000000D+00  E= 4.873455D-01

 Vector  270  Occ=0.000000D+00  E= 4.889527D-01

 Vector  271  Occ=0.000000D+00  E= 4.930661D-01

 Vector  272  Occ=0.000000D+00  E= 4.947064D-01

 Vector  273  Occ=0.000000D+00  E= 4.972107D-01

 Vector  274  Occ=0.000000D+00  E= 5.002033D-01

       Multipole analysis of the density wrt the origin
       ------------------------------------------------

     L   x y z        total         open         nuclear
     -   - - -        -----         ----         -------
     0   0 0 0     -0.000000      0.000000    188.000000

     1   1 0 0     -0.067953      0.000000      0.000000
     1   0 1 0     -2.494951      0.000000      0.000000
     1   0 0 1      1.045586      0.000000      0.000000

     2   2 0 0   -138.797426      0.000000   1727.276363
     2   1 1 0     18.729836      0.000000     76.352546
     2   1 0 1     -5.421753      0.000000     -0.560659
     2   0 2 0   -180.324983      0.000000   8121.363888
     2   0 1 1     31.062368      0.000000     -4.508023

 Total times  cpu:    53060.1s     wall:    53310.6s
