============================== echo of input deck ==============================
start ARG_LYS_5
geometry
H          4.80700       13.97000       -0.37700
C          4.31900       13.09300       -0.80100
H          3.34400       13.37900       -1.19100
H          4.19000       12.34100       -0.02300
C          5.17200       12.52800       -1.91200
O          4.71600       12.43900       -3.05600
N          6.40900       12.14400       -1.58200
H          6.67700       12.23300       -0.61200
C          7.37000       11.53000       -2.51500
H          7.47300       12.19000       -3.37700
C          8.74400       11.40100       -1.82700
H          8.97500       12.33500       -1.31200
H          8.68800       10.61800       -1.06800
C          9.89300       11.11100       -2.81600
H          9.50100       10.86600       -3.80400
H         10.49400       12.01600       -2.91700
C         10.80600        9.96800       -2.34900
H         11.71800        9.98500       -2.94900
H         11.07700       10.13400       -1.30400
N         10.14800        8.65900       -2.52400
H          9.47200        8.57400       -3.27500
C         10.34900        7.54500       -1.84800
N         11.20900        7.44900       -0.87200
H         11.76200        8.24900       -0.62900
H         11.33600        6.57900       -0.38800
N          9.66200        6.49200       -2.17500
H          9.00800        6.58300       -2.94200
H          9.77700        5.62400       -1.68800
C          6.85500       10.16500       -2.98900
O          6.62400        9.27100       -2.18200
N          6.67900       10.00100       -4.30300
H          6.94400       10.76400       -4.90400
C          6.10300        8.79200       -4.92100
H          5.23800        8.48700       -4.32700
C          5.60700        9.11500       -6.35000
H          6.42200        9.52000       -6.95200
H          5.28900        8.18300       -6.82000
C          4.39000       10.06700       -6.38600
H          3.80900        9.83500       -7.28000
H          3.75500        9.86800       -5.52200
C          4.74600       11.56600       -6.44400
H          5.39300       11.84100       -5.61400
H          5.29200       11.75300       -7.37100
C          3.50600       12.47400       -6.42200
H          3.83200       13.49500       -6.64500
H          2.82000       12.16600       -7.21800
N          2.81900       12.45500       -5.10500
H          2.09100       13.15600       -5.06300
H          2.40900       11.54900       -4.92200
H          3.48600       12.64000       -4.35400
C          7.06500        7.58700       -4.86600
O          8.20600        7.69200       -4.41600
N          6.61200        6.41600       -5.28400
H          7.23100        5.62100       -5.27000
H          5.67300        6.32900       -5.63600
end

basis
 * library aug-cc-pvdz
end

echo

scf
 direct
end

task scf energy
================================================================================

 Output coordinates in angstroms (scale by  1.889725989 to convert to a.u.)

  No.       Tag          Charge          X              Y              Z
 ---- ---------------- ---------- -------------- -------------- --------------
    1 H                    1.0000     4.64595715    -2.70587163    -1.09716458
    2 C                    6.0000     3.68056782    -2.77616906    -1.59729526
    3 H                    1.0000     3.45618822    -3.82213225    -1.79763450
    4 H                    1.0000     3.72187834    -2.22922499    -2.53887618
    5 C                    6.0000     2.60977980    -2.18018816    -0.71447320
    6 O                    8.0000     1.65617188    -2.87324865    -0.34719661
    7 N                    7.0000     2.76047476    -0.89693042    -0.37232470
    8 H                    1.0000     3.56190172    -0.40976478    -0.74786361
    9 C                    6.0000     1.80082418    -0.13132464     0.44249096
   10 H                    1.0000     1.63297693    -0.67892651     1.37050632
   11 C                    6.0000     2.40209148     1.24648910     0.78595558
   12 H                    1.0000     3.43677034     1.11499826     1.10703472
   13 H                    1.0000     2.41872562     1.86070808    -0.11668740
   14 C                    6.0000     1.64564795     1.97350331     1.91806225
   15 H                    1.0000     0.70912427     1.46360809     2.14776481
   16 H                    1.0000     2.26390973     1.94388932     2.81656232
   17 C                    6.0000     1.34048340     3.44079496     1.58334323
   18 H                    1.0000     1.04091197     3.95107461     2.50089685
   19 H                    1.0000     2.24865782     3.91529243     1.20506639
   20 N                    7.0000     0.24187072     3.54340849     0.60375626
   21 H                    1.0000    -0.45363269     2.80552218     0.60464821
   22 C                    6.0000     0.01055028     4.50421734    -0.26900385
   23 N                    7.0000     0.77287968     5.55568734    -0.39006885
   24 H                    1.0000     1.56381853     5.65700668     0.21739154
   25 H                    1.0000     0.55619620     6.26784265    -1.06324645
   26 N                    7.0000    -1.03011792     4.40068763    -1.03971670
   27 H                    1.0000    -1.61573627     3.58351219    -0.92326305
   28 H                    1.0000    -1.24491898     5.10334916    -1.72085198
   29 C                    6.0000     0.46684764     0.01366134    -0.30088757
   30 O                    8.0000     0.41965083     0.56355604    -1.39598313
   31 N                    7.0000    -0.62241853    -0.47639806     0.29728381
   32 H                    1.0000    -0.50908584    -0.86311936     1.21988738
   33 C                    6.0000    -1.96434927    -0.50822786    -0.31393608
   34 H                    1.0000    -1.85660241    -0.83407028    -1.35138648
   35 C                    6.0000    -2.85312484    -1.54120663     0.41778712
   36 H                    1.0000    -2.90620633    -1.30928579     1.48270453
   37 H                    1.0000    -3.86567891    -1.46433759     0.01844590
   38 C                    6.0000    -2.40504163    -3.00570955     0.21008151
   39 H                    1.0000    -3.29040475    -3.64000457     0.27658698
   40 H                    1.0000    -1.99824028    -3.11567216    -0.79577280
   41 C                    6.0000    -1.38917318    -3.52218576     1.24852487
   42 H                    1.0000    -0.51231943    -2.87946778     1.28280454
   43 H                    1.0000    -1.86202124    -3.49703407     2.23249444
   44 C                    6.0000    -0.93172278    -4.96271349     0.96894127
   45 H                    1.0000    -0.36167751    -5.30965903     1.83676797
   46 H                    1.0000    -1.81143329    -5.60773907     0.87340384
   47 N                    7.0000    -0.08171028    -5.05653559    -0.24575835
   48 H                    1.0000     0.32104341    -5.97971393    -0.33892608
   49 H                    1.0000    -0.61489961    -4.84870623    -1.07938962
   50 H                    1.0000     0.67988786    -4.37761628    -0.19937050
   51 C                    6.0000    -2.60389913     0.89296453    -0.40410174
   52 O                    8.0000    -2.04993242     1.88678218     0.06584866
   53 N                    7.0000    -3.75807754     1.00475045    -1.04171457
   54 H                    1.0000    -4.19836231     1.90943325    -1.09721537
   55 H                    1.0000    -4.20104720     0.19327156    -1.43980237

         Total SCF energy =  -1153.952872562871

 Vector  194  Occ=0.000000D+00  E= 2.931261D-01

 Vector  195  Occ=0.000000D+00  E= 2.969607D-01

 Vector  196  Occ=0.000000D+00  E= 3.002754D-01

 Vector  197  Occ=0.000000D+00  E= 3.029472D-01

 Vector  198  Occ=0.000000D+00  E= 3.080857D-01

 Vector  199  Occ=0.000000D+00  E= 3.093534D-01

 Vector  200  Occ=0.000000D+00  E= 3.127988D-01

 Vector  201  Occ=0.000000D+00  E= 3.140903D-01

 Vector  202  Occ=0.000000D+00  E= 3.160648D-01

 Vector  203  Occ=0.000000D+00  E= 3.182368D-01

 Vector  204  Occ=0.000000D+00  E= 3.226871D-01

 Vector  205  Occ=0.000000D+00  E= 3.251976D-01

 Vector  206  Occ=0.000000D+00  E= 3.294821D-01

 Vector  207  Occ=0.000000D+00  E= 3.313812D-01

 Vector  208  Occ=0.000000D+00  E= 3.321527D-01

 Vector  209  Occ=0.000000D+00  E= 3.355392D-01

 Vector  210  Occ=0.000000D+00  E= 3.396889D-01

 Vector  211  Occ=0.000000D+00  E= 3.417899D-01

 Vector  212  Occ=0.000000D+00  E= 3.442443D-01

 Vector  213  Occ=0.000000D+00  E= 3.453862D-01

 Vector  214  Occ=0.000000D+00  E= 3.495389D-01

 Vector  215  Occ=0.000000D+00  E= 3.518974D-01

 Vector  216  Occ=0.000000D+00  E= 3.557438D-01

 Vector  217  Occ=0.000000D+00  E= 3.578637D-01

 Vector  218  Occ=0.000000D+00  E= 3.602864D-01

 Vector  219  Occ=0.000000D+00  E= 3.632189D-01

 Vector  220  Occ=0.000000D+00  E= 3.646321D-01

 Vector  221  Occ=0.000000D+00  E= 3.676597D-01

 Vector  222  Occ=0.000000D+00  E= 3.699868D-01

 Vector  223  Occ=0.000000D+00  E= 3.718575D-01

 Vector  224  Occ=0.000000D+00  E= 3.777410D-01

 Vector  225  Occ=0.000000D+00  E= 3.799720D-01

 Vector  226  Occ=0.000000D+00  E= 3.814468D-01

 Vector  227  Occ=0.000000D+00  E= 3.824213D-01

 Vector  228  Occ=0.000000D+00  E= 3.883665D-01

 Vector  229  Occ=0.000000D+00  E= 3.891279D-01

 Vector  230  Occ=0.000000D+00  E= 3.910384D-01

 Vector  231  Occ=0.000000D+00  E= 3.931347D-01

 Vector  232  Occ=0.000000D+00  E= 3.967688D-01

 Vector  233  Occ=0.000000D+00  E= 3.984277D-01

 Vector  234  Occ=0.000000D+00  E= 4.023939D-01

 Vector  235  Occ=0.000000D+00  E= 4.051508D-01

 Vector  236  Occ=0.000000D+00  E= 4.071853D-01

 Vector  237  Occ=0.000000D+00  E= 4.077133D-01

 Vector  238  Occ=0.000000D+00  E= 4.130298D-01

 Vector  239  Occ=0.000000D+00  E= 4.167226D-01

 Vector  240  Occ=0.000000D+00  E= 4.182692D-01

 Vector  241  Occ=0.000000D+00  E= 4.208606D-01

 Vector  242  Occ=0.000000D+00  E= 4.228022D-01

 Vector  243  Occ=0.000000D+00  E= 4.256078D-01

 Vector  244  Occ=0.000000D+00  E= 4.273838D-01

 Vector  245  Occ=0.000000D+00  E= 4.304348D-01

 Vector  246  Occ=0.000000D+00  E= 4.310117D-01

 Vector  247  Occ=0.000000D+00  E= 4.342019D-01

 Vector  248  Occ=0.000000D+00  E= 4.380127D-01

 Vector  249  Occ=0.000000D+00  E= 4.398852D-01

 Vector  250  Occ=0.000000D+00  E= 4.408741D-01

 Vector  251  Occ=0.000000D+00  E= 4.471932D-01

 Vector  252  Occ=0.000000D+00  E= 4.486959D-01

 Vector  253  Occ=0.000000D+00  E= 4.506588D-01

 Vector  254  Occ=0.000000D+00  E= 4.537105D-01

 Vector  255  Occ=0.000000D+00  E= 4.569901D-01

 Vector  256  Occ=0.000000D+00  E= 4.604383D-01

 Vector  257  Occ=0.000000D+00  E= 4.621622D-01

 Vector  258  Occ=0.000000D+00  E= 4.630268D-01

 Vector  259  Occ=0.000000D+00  E= 4.656764D-01

 Vector  260  Occ=0.000000D+00  E= 4.677005D-01

 Vector  261  Occ=0.000000D+00  E= 4.729528D-01

 Vector  262  Occ=0.000000D+00  E= 4.736495D-01

 Vector  263  Occ=0.000000D+00  E= 4.768309D-01

 Vector  264  Occ=0.000000D+00  E= 4.787757D-01

 Vector  265  Occ=0.000000D+00  E= 4.830654D-01

 Vector  266  Occ=0.000000D+00  E= 4.842547D-01

 Vector  267  Occ=0.000000D+00  E= 4.887757D-01

 Vector  268  Occ=0.000000D+00  E= 4.892515D-01

 Vector  269  Occ=0.000000D+00  E= 4.912253D-01

 Vector  270  Occ=0.000000D+00  E= 4.953188D-01

 Vector  271  Occ=0.000000D+00  E= 4.972030D-01

 Vector  272  Occ=0.000000D+00  E= 4.995511D-01

 Vector  273  Occ=0.000000D+00  E= 5.080594D-01

       Multipole analysis of the density wrt the origin
       ------------------------------------------------

     L   x y z        total         open         nuclear
     -   - - -        -----         ----         -------
     0   0 0 0     -0.000000      0.000000    188.000000

     1   1 0 0      0.356671      0.000000     -0.000000
     1   0 1 0      3.758155      0.000000     -0.000000
     1   0 0 1      1.146370      0.000000     -0.000000

     2   2 0 0   -134.027134      0.000000   2775.588251
     2   1 1 0      2.859812      0.000000     49.375357
     2   1 0 1     -2.127720      0.000000      1.514502
     2   0 2 0   -165.822972      0.000000   6088.058920
     2   0 1 1     -5.959462      0.000000      4.055740

 Total times  cpu:    55850.3s     wall:    55976.1s
