============================== echo of input deck ==============================
start ARG_ARG_2
geometry
H          4.28800       12.96000       -5.90600
C          4.58800       13.41000       -4.96000
H          3.87100       14.18700       -4.69500
H          5.57800       13.85100       -5.06100
C          4.59800       12.35600       -3.87900
O          3.87900       12.46800       -2.89300
N          5.44600       11.33200       -4.02900
H          6.00700       11.32800       -4.87000
C          5.47700       10.13300       -3.15800
H          4.48600        9.67900       -3.21900
C          6.52400        9.12700       -3.70200
H          7.16700        9.63100       -4.42700
H          7.17700        8.78200       -2.89800
C          5.89000        7.90200       -4.39500
H          4.96700        8.20100       -4.89500
H          6.57700        7.55200       -5.16700
C          5.60600        6.71000       -3.46100
H          5.03300        5.96600       -4.01800
H          6.55900        6.25700       -3.18000
N          4.89600        7.11100       -2.23100
H          5.26200        7.92100       -1.74900
C          3.86200        6.55200       -1.63400
N          3.39500        7.11800       -0.56000
H          2.61300        6.72400       -0.06900
H          3.83700        7.96500       -0.22800
N          3.28700        5.46600       -2.06900
H          2.50300        5.07000       -1.58400
H          3.65400        5.01300       -2.88700
C          5.67700       10.40700       -1.65500
O          5.34400        9.53100       -0.85500
N          6.17000       11.59100       -1.26900
H          6.37500       12.24700       -2.00700
C          6.29100       12.06300        0.12700
H          6.73800       11.26200        0.71900
C          7.24400       13.28200        0.13800
H          8.22300       12.95600       -0.21900
H          6.86800       14.02300       -0.57000
C          7.44100       13.99700        1.49000
H          8.16800       14.79900        1.35100
H          6.50100       14.46400        1.78500
C          7.93800       13.08000        2.62000
H          7.30300       12.19700        2.69900
H          8.94700       12.74000        2.37600
N          7.96300       13.77800        3.92200
H          8.85500       14.13800        4.22000
C          6.94600       13.95100        4.75300
N          5.73600       13.54200        4.49000
H          5.53400       13.08800        3.60200
H          4.98700       13.68600        5.14000
N          7.13100       14.55800        5.89200
H          8.04300       14.89300        6.14900
H          6.36100       14.69000        6.52200
C          4.93900       12.37600        0.79800
O          4.87800       12.43000        2.02300
N          3.86400       12.57700        0.05300
H          2.99100       12.78600        0.51000
H          3.92100       12.54800       -0.95700
end

basis
 * library aug-cc-pvdz
end

echo

scf
 direct
end

task scf energy
================================================================================

 Output coordinates in angstroms (scale by  1.889725989 to convert to a.u.)

  No.       Tag          Charge          X              Y              Z
 ---- ---------------- ---------- -------------- -------------- --------------
    1 H                    1.0000     4.82005433    -3.12321805    -1.07228663
    2 C                    6.0000     4.57106859    -2.06563021    -0.98903974
    3 H                    1.0000     4.91185944    -1.55044673    -1.88708794
    4 H                    1.0000     5.06588790    -1.63955631    -0.11817988
    5 C                    6.0000     3.07483425    -1.90637998    -0.86454407
    6 O                    8.0000     2.44538258    -1.26342022    -1.69646615
    7 N                    7.0000     2.48626160    -2.45829307     0.20276759
    8 H                    1.0000     3.08681394    -2.96199351     0.84123509
    9 C                    6.0000     1.02000957    -2.54158282     0.40369246
   10 H                    1.0000     0.62094622    -3.09742128    -0.44701904
   11 C                    6.0000     0.72144968    -3.33186969     1.70388077
   12 H                    1.0000     1.63634453    -3.41465030     2.29481630
   13 H                    1.0000     0.00212042    -2.79234964     2.32302012
   14 C                    6.0000     0.18997017    -4.75738610     1.44260988
   15 H                    1.0000     0.64993143    -5.15975567     0.53825134
   16 H                    1.0000     0.49781485    -5.39485463     2.27286197
   17 C                    6.0000    -1.34309638    -4.86174547     1.32995080
   18 H                    1.0000    -1.59563870    -5.87293240     1.00462426
   19 H                    1.0000    -1.77308751    -4.71216982     2.32247977
   20 N                    7.0000    -1.91348957    -3.85453334     0.41454032
   21 H                    1.0000    -1.58279890    -2.90639599     0.53311197
   22 C                    6.0000    -2.82475273    -3.99201602    -0.52819187
   23 N                    7.0000    -3.14547176    -2.94341103    -1.22782597
   24 H                    1.0000    -3.83877616    -2.99993372    -1.95168728
   25 H                    1.0000    -2.68168240    -2.06727481    -1.02712285
   26 N                    7.0000    -3.41414941    -5.12427078    -0.79249610
   27 H                    1.0000    -4.10524207    -5.18699397    -1.51717102
   28 H                    1.0000    -3.18523737    -5.93390805    -0.24376232
   29 C                    6.0000     0.26569200    -1.19854746     0.36700411
   30 O                    8.0000    -0.94726136    -1.21872276     0.15112885
   31 N                    7.0000     0.95264305    -0.06117323     0.53546505
   32 H                    1.0000     1.94718142    -0.16045907     0.66978095
   33 C                    6.0000     0.40917098     1.30619680     0.38993738
   34 H                    1.0000    -0.53501682     1.35646181     0.93569999
   35 C                    6.0000     1.41221215     2.29018176     1.03799062
   36 H                    1.0000     1.49624667     2.04612035     2.09890448
   37 H                    1.0000     2.39391457     2.13210369     0.58744353
   38 C                    6.0000     1.08759234     3.79277994     0.91650526
   39 H                    1.0000     1.85270103     4.35357174     1.45611183
   40 H                    1.0000     1.15382308     4.08678553    -0.13129634
   41 C                    6.0000    -0.28966997     4.18604883     1.47622492
   42 H                    1.0000    -1.06749815     3.55125487     1.05057841
   43 H                    1.0000    -0.28688661     4.02495518     2.55662211
   44 N                    7.0000    -0.61139582     5.60094426     1.19766362
   45 H                    1.0000    -0.44727235     6.25336673     1.94698091
   46 C                    6.0000    -1.12325175     6.09677981     0.08100358
   47 N                    7.0000    -1.37832838     5.36687315    -0.96910222
   48 H                    1.0000    -1.16052273     4.37289696    -0.96310024
   49 H                    1.0000    -1.76759580     5.77081584    -1.79948657
   50 N                    7.0000    -1.39136467     7.36992254    -0.00395548
   51 H                    1.0000    -1.21733471     7.98071139     0.77493383
   52 H                    1.0000    -1.77867973     7.74658374    -0.84973168
   53 C                    6.0000     0.07392078     1.69161606    -1.06442616
   54 O                    8.0000    -0.69021298     2.62957430    -1.27322254
   55 N                    7.0000     0.60499388     1.00970910    -2.06643178
   56 H                    1.0000     0.37822980     1.28064495    -3.00974022
   57 H                    1.0000     1.24734390     0.24754475    -1.89126910

         Total SCF energy =  -1262.897167081528

 Vector  209  Occ=0.000000D+00  E= 3.007642D-01

 Vector  210  Occ=0.000000D+00  E= 3.047421D-01

 Vector  211  Occ=0.000000D+00  E= 3.071495D-01

 Vector  212  Occ=0.000000D+00  E= 3.113169D-01

 Vector  213  Occ=0.000000D+00  E= 3.130203D-01

 Vector  214  Occ=0.000000D+00  E= 3.163391D-01

 Vector  215  Occ=0.000000D+00  E= 3.172126D-01

 Vector  216  Occ=0.000000D+00  E= 3.212137D-01

 Vector  217  Occ=0.000000D+00  E= 3.256901D-01

 Vector  218  Occ=0.000000D+00  E= 3.274875D-01

 Vector  219  Occ=0.000000D+00  E= 3.300674D-01

 Vector  220  Occ=0.000000D+00  E= 3.317219D-01

 Vector  221  Occ=0.000000D+00  E= 3.374462D-01

 Vector  222  Occ=0.000000D+00  E= 3.398537D-01

 Vector  223  Occ=0.000000D+00  E= 3.434979D-01

 Vector  224  Occ=0.000000D+00  E= 3.471213D-01

 Vector  225  Occ=0.000000D+00  E= 3.478037D-01

 Vector  226  Occ=0.000000D+00  E= 3.482428D-01

 Vector  227  Occ=0.000000D+00  E= 3.503264D-01

 Vector  228  Occ=0.000000D+00  E= 3.541098D-01

 Vector  229  Occ=0.000000D+00  E= 3.551134D-01

 Vector  230  Occ=0.000000D+00  E= 3.558905D-01

 Vector  231  Occ=0.000000D+00  E= 3.607773D-01

 Vector  232  Occ=0.000000D+00  E= 3.631289D-01

 Vector  233  Occ=0.000000D+00  E= 3.650198D-01

 Vector  234  Occ=0.000000D+00  E= 3.674996D-01

 Vector  235  Occ=0.000000D+00  E= 3.686264D-01

 Vector  236  Occ=0.000000D+00  E= 3.718888D-01

 Vector  237  Occ=0.000000D+00  E= 3.736950D-01

 Vector  238  Occ=0.000000D+00  E= 3.752719D-01

 Vector  239  Occ=0.000000D+00  E= 3.801953D-01

 Vector  240  Occ=0.000000D+00  E= 3.812400D-01

 Vector  241  Occ=0.000000D+00  E= 3.855248D-01

 Vector  242  Occ=0.000000D+00  E= 3.870545D-01

 Vector  243  Occ=0.000000D+00  E= 3.905423D-01

 Vector  244  Occ=0.000000D+00  E= 3.933970D-01

 Vector  245  Occ=0.000000D+00  E= 3.944448D-01

 Vector  246  Occ=0.000000D+00  E= 3.963783D-01

 Vector  247  Occ=0.000000D+00  E= 3.966451D-01

 Vector  248  Occ=0.000000D+00  E= 3.973437D-01

 Vector  249  Occ=0.000000D+00  E= 4.017565D-01

 Vector  250  Occ=0.000000D+00  E= 4.045141D-01

 Vector  251  Occ=0.000000D+00  E= 4.075472D-01

 Vector  252  Occ=0.000000D+00  E= 4.112194D-01

 Vector  253  Occ=0.000000D+00  E= 4.130728D-01

 Vector  254  Occ=0.000000D+00  E= 4.136288D-01

 Vector  255  Occ=0.000000D+00  E= 4.167226D-01

 Vector  256  Occ=0.000000D+00  E= 4.179399D-01

 Vector  257  Occ=0.000000D+00  E= 4.202466D-01

 Vector  258  Occ=0.000000D+00  E= 4.237473D-01

 Vector  259  Occ=0.000000D+00  E= 4.256168D-01

 Vector  260  Occ=0.000000D+00  E= 4.298937D-01

 Vector  261  Occ=0.000000D+00  E= 4.301239D-01

 Vector  262  Occ=0.000000D+00  E= 4.347182D-01

 Vector  263  Occ=0.000000D+00  E= 4.353823D-01

 Vector  264  Occ=0.000000D+00  E= 4.369761D-01

 Vector  265  Occ=0.000000D+00  E= 4.391670D-01

 Vector  266  Occ=0.000000D+00  E= 4.404831D-01

 Vector  267  Occ=0.000000D+00  E= 4.440600D-01

 Vector  268  Occ=0.000000D+00  E= 4.444045D-01

 Vector  269  Occ=0.000000D+00  E= 4.506410D-01

 Vector  270  Occ=0.000000D+00  E= 4.524737D-01

 Vector  271  Occ=0.000000D+00  E= 4.565567D-01

 Vector  272  Occ=0.000000D+00  E= 4.565873D-01

 Vector  273  Occ=0.000000D+00  E= 4.589247D-01

 Vector  274  Occ=0.000000D+00  E= 4.615430D-01

 Vector  275  Occ=0.000000D+00  E= 4.622377D-01

 Vector  276  Occ=0.000000D+00  E= 4.662862D-01

 Vector  277  Occ=0.000000D+00  E= 4.711691D-01

 Vector  278  Occ=0.000000D+00  E= 4.748240D-01

 Vector  279  Occ=0.000000D+00  E= 4.776486D-01

 Vector  280  Occ=0.000000D+00  E= 4.783881D-01

 Vector  281  Occ=0.000000D+00  E= 4.810848D-01

 Vector  282  Occ=0.000000D+00  E= 4.849900D-01

 Vector  283  Occ=0.000000D+00  E= 4.881400D-01

 Vector  284  Occ=0.000000D+00  E= 4.909174D-01

 Vector  285  Occ=0.000000D+00  E= 4.917946D-01

 Vector  286  Occ=0.000000D+00  E= 4.969846D-01

 Vector  287  Occ=0.000000D+00  E= 4.993533D-01

 Vector  288  Occ=0.000000D+00  E= 5.012677D-01

       Multipole analysis of the density wrt the origin
       ------------------------------------------------

     L   x y z        total         open         nuclear
     -   - - -        -----         ----         -------
     0   0 0 0      0.000000      0.000000    202.000000

     1   1 0 0      1.412188      0.000000     -0.000000
     1   0 1 0     -0.341655      0.000000     -0.000000
     1   0 0 1     -0.257704      0.000000      0.000000

     2   2 0 0   -154.680566      0.000000   2743.978144
     2   1 1 0     -7.577196      0.000000      0.010911
     2   1 0 1     -3.629353      0.000000     17.372750
     2   0 2 0   -148.547505      0.000000  10099.751999
     2   0 1 1     -9.361557      0.000000    -10.281866

 Total times  cpu:    35699.0s     wall:    35766.7s
