============================== echo of input deck ==============================
start ARG_ARG_4
geometry
H          8.28200       10.91100       -5.03600
C          7.47000       11.59300       -4.79000
H          7.01800       11.96600       -5.70900
H          7.86800       12.42900       -4.21600
C          6.42600       10.86900       -3.97300
O          6.54600        9.66400       -3.74200
N          5.39100       11.59300       -3.53700
H          5.35900       12.56600       -3.80600
C          4.27600       11.04500       -2.74100
H          4.69200       10.66300       -1.80800
C          3.26500       12.16400       -2.42300
H          3.79800       13.09200       -2.20800
H          2.64700       12.33800       -3.30700
C          2.37700       11.83900       -1.20500
H          2.29600       10.76100       -1.06200
H          2.84900       12.25700       -0.31400
C          0.96200       12.41900       -1.33900
H          0.48900       12.41200       -0.35400
H          1.02700       13.45300       -1.68800
N          0.15200       11.60500       -2.26400
H          0.51400       10.69400       -2.52200
C         -1.03100       11.88200       -2.77400
N         -1.59400       10.99600       -3.54000
H         -2.49400       11.16000       -3.95100
H         -1.10100       10.12500       -3.69300
N         -1.66200       12.99900       -2.54100
H         -1.23700       13.68300       -1.94100
H         -2.56300       13.17300       -2.94600
C          3.58900        9.89400       -3.49100
O          3.32000       10.00000       -4.68200
N          3.28000        8.79400       -2.79500
H          3.48900        8.78400       -1.81000
C          2.56800        7.64000       -3.38100
H          3.07600        7.35400       -4.30500
C          2.60000        6.44100       -2.41100
H          2.44400        6.78900       -1.38800
H          1.76200        5.78300       -2.65100
C          3.87000        5.56700       -2.47300
H          3.69200        4.71000       -1.82100
H          3.99300        5.17800       -3.48500
C          5.18400        6.22200       -2.00500
H          4.96900        6.92000       -1.19400
H          5.82800        5.44400       -1.59000
N          5.91800        6.91800       -3.08500
H          5.88800        7.93200       -3.10200
C          6.74200        6.39100       -3.97500
N          7.37400        7.18000       -4.79100
H          7.24400        8.18100       -4.67600
H          8.01900        6.82500       -5.47100
N          6.95700        5.10900       -4.07300
H          6.50500        4.48300       -3.43200
H          7.60700        4.75400       -4.75100
C          1.12900        8.00600       -3.79800
O          0.52900        8.95500       -3.29100
N          0.55300        7.25000       -4.71900
H         -0.38700        7.46300       -5.00800
H          1.05400        6.48000       -5.13100
end

basis
 * library aug-cc-pvdz
end

echo

scf
 direct
end

task scf energy
================================================================================

 Output coordinates in angstroms (scale by  1.889725989 to convert to a.u.)

  No.       Tag          Charge          X              Y              Z
 ---- ---------------- ---------- -------------- -------------- --------------
    1 H                    1.0000     4.09331925    -3.48307740    -1.24632329
    2 C                    6.0000     4.20759119    -2.40492654    -1.14876997
    3 H                    1.0000     4.28718988    -1.95706165    -2.13926231
    4 H                    1.0000     5.11235226    -2.19219687    -0.58050112
    5 C                    6.0000     3.01068457    -1.82838630    -0.43000930
    6 O                    8.0000     2.06846446    -2.55717051    -0.11239185
    7 N                    7.0000     3.03280079    -0.51679036    -0.17560026
    8 H                    1.0000     3.83116905     0.00663786    -0.50536536
    9 C                    6.0000     1.94369391     0.21201530     0.50250998
   10 H                    1.0000     1.83641175    -0.20918619     1.50278436
   11 C                    6.0000     2.31054396     1.70440787     0.61909243
   12 H                    1.0000     3.37388992     1.80603032     0.84373937
   13 H                    1.0000     2.13188497     2.18446815    -0.34593560
   14 C                    6.0000     1.52409644     2.42831853     1.73046395
   15 H                    1.0000     0.57835779     1.92246489     1.92740172
   16 H                    1.0000     2.11508181     2.39492997     2.64753020
   17 C                    6.0000     1.22780415     3.89338302     1.38063842
   18 H                    1.0000     0.94042981     4.41763624     2.29528455
   19 H                    1.0000     2.13224077     4.35922174     0.98042510
   20 N                    7.0000     0.12077204     3.98256240     0.41066525
   21 H                    1.0000    -0.43278529     3.14733018     0.25739942
   22 C                    6.0000    -0.29203025     5.03709361    -0.26303810
   23 N                    7.0000    -1.32574330     4.90570097    -1.03950079
   24 H                    1.0000    -1.67825916     5.67903196    -1.57195619
   25 H                    1.0000    -1.77570152     3.99938125    -1.07444591
   26 N                    7.0000     0.28494727     6.20354634    -0.18165040
   27 H                    1.0000     1.07747746     6.31413705     0.42510044
   28 H                    1.0000    -0.05991296     6.98404319    -0.70890564
   29 C                    6.0000     0.62034513     0.03927633    -0.25787101
   30 O                    8.0000     0.58421819     0.15138452    -1.47779093
   31 N                    7.0000    -0.48102656    -0.21310402     0.45849591
   32 H                    1.0000    -0.39389490    -0.25202871     1.46094239
   33 C                    6.0000    -1.82403624    -0.34382284    -0.14258110
   34 H                    1.0000    -1.76264636    -1.04939561    -0.97446712
   35 C                    6.0000    -2.82496250    -0.89282690     0.89485139
   36 H                    1.0000    -2.64213611    -0.42905240     1.86616839
   37 H                    1.0000    -3.83147242    -0.59840139     0.58979499
   38 C                    6.0000    -2.84975365    -2.42773360     1.04998617
   39 H                    1.0000    -3.67537700    -2.66056797     1.72479818
   40 H                    1.0000    -3.08520221    -2.88533038     0.08782030
   41 C                    6.0000    -1.58725920    -3.08363110     1.64205984
   42 H                    1.0000    -1.14115350    -2.40869408     2.37458951
   43 H                    1.0000    -1.88784440    -3.98319183     2.18306265
   44 N                    7.0000    -0.57968532    -3.45734672     0.62485607
   45 H                    1.0000     0.24880930    -2.87755073     0.54228336
   46 C                    6.0000    -0.54507515    -4.55081353    -0.11806888
   47 N                    7.0000     0.47820964    -4.75225405    -0.89273718
   48 H                    1.0000     1.23790523    -4.07868867    -0.85670553
   49 H                    1.0000     0.55287844    -5.57421524    -1.46129182
   50 N                    7.0000    -1.49222210    -5.44646247    -0.10920196
   51 H                    1.0000    -2.27664778    -5.32824404     0.50542130
   52 H                    1.0000    -1.41483008    -6.27225890    -0.67513458
   53 C                    6.0000    -2.30610561     0.98351007    -0.76255083
   54 O                    8.0000    -1.85753044     2.07064374    -0.39571205
   55 N                    7.0000    -3.23554754     0.91247519    -1.70204259
   56 H                    1.0000    -3.57184077     1.76285363    -2.12186799
   57 H                    1.0000    -3.59166575     0.01863914    -1.99849146

         Total SCF energy =  -1262.902328269427

 Vector  206  Occ=0.000000D+00  E= 2.980453D-01

 Vector  207  Occ=0.000000D+00  E= 3.007018D-01

 Vector  208  Occ=0.000000D+00  E= 3.072902D-01

 Vector  209  Occ=0.000000D+00  E= 3.100755D-01

 Vector  210  Occ=0.000000D+00  E= 3.146549D-01

 Vector  211  Occ=0.000000D+00  E= 3.164184D-01

 Vector  212  Occ=0.000000D+00  E= 3.191329D-01

 Vector  213  Occ=0.000000D+00  E= 3.198548D-01

 Vector  214  Occ=0.000000D+00  E= 3.227598D-01

 Vector  215  Occ=0.000000D+00  E= 3.252239D-01

 Vector  216  Occ=0.000000D+00  E= 3.308498D-01

 Vector  217  Occ=0.000000D+00  E= 3.333969D-01

 Vector  218  Occ=0.000000D+00  E= 3.347785D-01

 Vector  219  Occ=0.000000D+00  E= 3.354235D-01

 Vector  220  Occ=0.000000D+00  E= 3.396601D-01

 Vector  221  Occ=0.000000D+00  E= 3.413567D-01

 Vector  222  Occ=0.000000D+00  E= 3.429390D-01

 Vector  223  Occ=0.000000D+00  E= 3.484913D-01

 Vector  224  Occ=0.000000D+00  E= 3.517060D-01

 Vector  225  Occ=0.000000D+00  E= 3.536122D-01

 Vector  226  Occ=0.000000D+00  E= 3.552371D-01

 Vector  227  Occ=0.000000D+00  E= 3.556175D-01

 Vector  228  Occ=0.000000D+00  E= 3.589226D-01

 Vector  229  Occ=0.000000D+00  E= 3.608721D-01

 Vector  230  Occ=0.000000D+00  E= 3.624473D-01

 Vector  231  Occ=0.000000D+00  E= 3.652993D-01

 Vector  232  Occ=0.000000D+00  E= 3.670034D-01

 Vector  233  Occ=0.000000D+00  E= 3.680058D-01

 Vector  234  Occ=0.000000D+00  E= 3.720812D-01

 Vector  235  Occ=0.000000D+00  E= 3.753689D-01

 Vector  236  Occ=0.000000D+00  E= 3.784062D-01

 Vector  237  Occ=0.000000D+00  E= 3.819428D-01

 Vector  238  Occ=0.000000D+00  E= 3.842851D-01

 Vector  239  Occ=0.000000D+00  E= 3.872174D-01

 Vector  240  Occ=0.000000D+00  E= 3.885702D-01

 Vector  241  Occ=0.000000D+00  E= 3.890432D-01

 Vector  242  Occ=0.000000D+00  E= 3.917926D-01

 Vector  243  Occ=0.000000D+00  E= 3.930504D-01

 Vector  244  Occ=0.000000D+00  E= 3.945128D-01

 Vector  245  Occ=0.000000D+00  E= 3.970291D-01

 Vector  246  Occ=0.000000D+00  E= 4.000156D-01

 Vector  247  Occ=0.000000D+00  E= 4.029247D-01

 Vector  248  Occ=0.000000D+00  E= 4.051788D-01

 Vector  249  Occ=0.000000D+00  E= 4.078773D-01

 Vector  250  Occ=0.000000D+00  E= 4.096775D-01

 Vector  251  Occ=0.000000D+00  E= 4.109762D-01

 Vector  252  Occ=0.000000D+00  E= 4.134631D-01

 Vector  253  Occ=0.000000D+00  E= 4.167387D-01

 Vector  254  Occ=0.000000D+00  E= 4.193119D-01

 Vector  255  Occ=0.000000D+00  E= 4.222927D-01

 Vector  256  Occ=0.000000D+00  E= 4.239401D-01

 Vector  257  Occ=0.000000D+00  E= 4.274367D-01

 Vector  258  Occ=0.000000D+00  E= 4.297789D-01

 Vector  259  Occ=0.000000D+00  E= 4.307539D-01

 Vector  260  Occ=0.000000D+00  E= 4.328326D-01

 Vector  261  Occ=0.000000D+00  E= 4.352457D-01

 Vector  262  Occ=0.000000D+00  E= 4.392665D-01

 Vector  263  Occ=0.000000D+00  E= 4.407815D-01

 Vector  264  Occ=0.000000D+00  E= 4.423357D-01

 Vector  265  Occ=0.000000D+00  E= 4.474470D-01

 Vector  266  Occ=0.000000D+00  E= 4.477939D-01

 Vector  267  Occ=0.000000D+00  E= 4.501936D-01

 Vector  268  Occ=0.000000D+00  E= 4.539615D-01

 Vector  269  Occ=0.000000D+00  E= 4.561329D-01

 Vector  270  Occ=0.000000D+00  E= 4.570621D-01

 Vector  271  Occ=0.000000D+00  E= 4.602780D-01

 Vector  272  Occ=0.000000D+00  E= 4.621024D-01

 Vector  273  Occ=0.000000D+00  E= 4.651485D-01

 Vector  274  Occ=0.000000D+00  E= 4.698743D-01

 Vector  275  Occ=0.000000D+00  E= 4.708666D-01

 Vector  276  Occ=0.000000D+00  E= 4.753374D-01

 Vector  277  Occ=0.000000D+00  E= 4.780232D-01

 Vector  278  Occ=0.000000D+00  E= 4.801609D-01

 Vector  279  Occ=0.000000D+00  E= 4.830916D-01

 Vector  280  Occ=0.000000D+00  E= 4.852933D-01

 Vector  281  Occ=0.000000D+00  E= 4.911193D-01

 Vector  282  Occ=0.000000D+00  E= 4.928728D-01

 Vector  283  Occ=0.000000D+00  E= 4.967840D-01

 Vector  284  Occ=0.000000D+00  E= 4.981428D-01

 Vector  285  Occ=0.000000D+00  E= 5.021378D-01

       Multipole analysis of the density wrt the origin
       ------------------------------------------------

     L   x y z        total         open         nuclear
     -   - - -        -----         ----         -------
     0   0 0 0     -0.000000      0.000000    202.000000

     1   1 0 0      1.804360      0.000000      0.000000
     1   0 1 0      0.172390      0.000000     -0.000000
     1   0 0 1     -0.358487      0.000000      0.000000

     2   2 0 0   -149.830022      0.000000   3011.198253
     2   1 1 0     -4.327458      0.000000     43.628260
     2   1 0 1     -2.526041      0.000000     -9.007318
     2   0 2 0   -157.996041      0.000000   7361.028637
     2   0 1 1      1.886557      0.000000     14.354538

 Total times  cpu:    84343.7s     wall:    84849.3s
