============================== echo of input deck ==============================
start ARG_LYS_0
geometry
H          7.23100       17.73600       -0.70500
C          7.47600       17.81300        0.35400
H          7.03700       18.72200        0.76200
H          8.56000       17.85400        0.46300
C          6.94200       16.60700        1.08900
O          6.30200       15.75200        0.48200
N          7.16500       16.56000        2.40700
H          7.68800       17.33600        2.79200
C          6.88800       15.42000        3.31500
H          7.40900       14.55400        2.90500
C          7.51900       15.77000        4.68500
H          8.57800       15.98400        4.52500
H          7.05700       16.68800        5.05600
C          7.42600       14.71900        5.80800
H          8.00000       15.07900        6.66300
H          6.38900       14.63400        6.13200
C          7.96200       13.33500        5.40700
H          7.49000       13.00000        4.48300
H          9.03500       13.41500        5.22100
N          7.72500       12.32800        6.46100
H          8.51000       12.10100        7.05000
C          6.60200       11.66400        6.68100
N          6.55300       10.75900        7.61900
H          5.70400       10.25100        7.79000
H          7.36700       10.55700        8.17400
N          5.51100       11.87200        5.99500
H          5.49700       12.59200        5.27800
H          4.68000       11.34600        6.18200
C          5.40800       14.98600        3.42500
O          5.12600       13.95800        4.04400
N          4.47500       15.73000        2.81900
H          4.81400       16.53900        2.32300
C          3.03700       15.41000        2.70900
H          2.62600       15.39600        3.72000
C          2.31000       16.53300        1.92900
H          1.24000       16.32000        1.89500
H          2.42900       17.45500        2.50200
C          2.81800       16.81300        0.49400
H          2.54700       17.83800        0.23600
H          3.90400       16.77300        0.47900
C          2.23100       15.89600       -0.59900
H          1.82100       14.98400       -0.16800
H          1.39200       16.41900       -1.06300
C          3.23700       15.52100       -1.70100
H          2.69000       14.98300       -2.48200
H          3.64100       16.43400       -2.14800
N          4.34000       14.66200       -1.19300
H          4.99800       15.19400       -0.62600
H          3.98100       13.94100       -0.56800
H          4.85700       14.22800       -1.94400
C          2.78000       14.01600        2.11300
O          3.48500       13.57900        1.20600
N          1.73800       13.33600        2.56100
H          1.55000       12.42800        2.16600
H          1.15100       13.71800        3.28400
end

basis
 * library aug-cc-pvdz
end

echo

scf
 direct
end

task scf energy
================================================================================

 Output coordinates in angstroms (scale by  1.889725989 to convert to a.u.)

  No.       Tag          Charge          X              Y              Z
 ---- ---------------- ---------- -------------- -------------- --------------
    1 H                    1.0000     3.80699110     3.26633535    -0.68133688
    2 C                    6.0000     3.91520231     2.34586834    -0.10821751
    3 H                    1.0000     4.01099999     2.58693579     0.94922057
    4 H                    1.0000     4.81247246     1.82520857    -0.44353480
    5 C                    6.0000     2.70980623     1.46386474    -0.32936663
    6 O                    8.0000     1.78542669     1.85414670    -1.03808128
    7 N                    7.0000     2.69756211     0.29156544     0.31454830
    8 H                    1.0000     3.51035211     0.09478217     0.88426643
    9 C                    6.0000     1.71749446    -0.80825025     0.13943163
   10 H                    1.0000     1.71317118    -1.06349489    -0.92091194
   11 C                    6.0000     2.25471461    -2.02303408     0.93520532
   12 H                    1.0000     3.26257688    -2.24344757     0.57672443
   13 H                    1.0000     2.34142856    -1.73883344     1.98664228
   14 C                    6.0000     1.44762431    -3.33430948     0.87569847
   15 H                    1.0000     2.00965178    -4.10710632     1.40201698
   16 H                    1.0000     0.50885682    -3.20001772     1.41258889
   17 C                    6.0000     1.16507643    -3.82336305    -0.55417785
   18 H                    1.0000     0.70943544    -3.02684496    -1.14302012
   19 H                    1.0000     2.11288512    -4.08569015    -1.02869674
   20 N                    7.0000     0.27339317    -5.00060756    -0.56559364
   21 H                    1.0000     0.71447658    -5.89692054    -0.69499023
   22 C                    6.0000    -1.04597604    -4.99325153    -0.46743167
   23 N                    7.0000    -1.71176642    -6.11197294    -0.54777823
   24 H                    1.0000    -2.71317918    -6.11272840    -0.47512893
   25 H                    1.0000    -1.22859971    -6.98236789    -0.69056328
   26 N                    7.0000    -1.73601727    -3.89987382    -0.28712837
   27 H                    1.0000    -1.25349198    -3.01134310    -0.18530741
   28 H                    1.0000    -2.73478281    -3.92862952    -0.22510821
   29 C                    6.0000     0.24813416    -0.46626806     0.47837775
   30 O                    8.0000    -0.63646698    -1.28401654     0.21715514
   31 N                    7.0000    -0.02325054     0.72512970     1.02443885
   32 H                    1.0000     0.76997685     1.32714729     1.17865669
   33 C                    6.0000    -1.36634490     1.27502436     1.30022390
   34 H                    1.0000    -1.84040479     0.62704688     2.03956848
   35 C                    6.0000    -1.23492319     2.68192209     1.93380507
   36 H                    1.0000    -2.22640474     3.06330299     2.18467944
   37 H                    1.0000    -0.69571485     2.56398136     2.87609927
   38 C                    6.0000    -0.47849896     3.74362256     1.09935705
   39 H                    1.0000    -0.09496487     4.49966494     1.78632978
   40 H                    1.0000     0.39103685     3.28736972     0.63356543
   41 C                    6.0000    -1.33186110     4.47623834     0.04334845
   42 H                    1.0000    -2.23248816     3.91217104    -0.19393613
   43 H                    1.0000    -1.66784829     5.42040327     0.47741203
   44 C                    6.0000    -0.57586063     4.78465191    -1.26064900
   45 H                    1.0000    -1.22466990     5.41101937    -1.88139399
   46 H                    1.0000     0.32245651     5.36450151    -1.02957595
   47 N                    7.0000    -0.21685852     3.55248130    -2.01259785
   48 H                    1.0000     0.54695870     3.04948488    -1.56420644
   49 H                    1.0000    -0.99383206     2.89249454    -2.02134958
   50 H                    1.0000     0.06051947     3.75681218    -2.96178505
   51 C                    6.0000    -2.27936577     1.26803079     0.06295069
   52 O                    8.0000    -1.82962898     1.51838025    -1.05316085
   53 N                    7.0000    -3.57048384     1.05161464     0.25015693
   54 H                    1.0000    -4.18120400     1.06107680    -0.55156893
   55 H                    1.0000    -3.93068930     0.87676515     1.17368369

         Total SCF energy =  -1153.953057864687

 Vector  194  Occ=0.000000D+00  E= 2.933741D-01

 Vector  195  Occ=0.000000D+00  E= 2.951981D-01

 Vector  196  Occ=0.000000D+00  E= 3.003142D-01

 Vector  197  Occ=0.000000D+00  E= 3.051300D-01

 Vector  198  Occ=0.000000D+00  E= 3.065654D-01

 Vector  199  Occ=0.000000D+00  E= 3.088837D-01

 Vector  200  Occ=0.000000D+00  E= 3.110131D-01

 Vector  201  Occ=0.000000D+00  E= 3.131725D-01

 Vector  202  Occ=0.000000D+00  E= 3.186322D-01

 Vector  203  Occ=0.000000D+00  E= 3.200916D-01

 Vector  204  Occ=0.000000D+00  E= 3.240335D-01

 Vector  205  Occ=0.000000D+00  E= 3.265919D-01

 Vector  206  Occ=0.000000D+00  E= 3.301903D-01

 Vector  207  Occ=0.000000D+00  E= 3.328597D-01

 Vector  208  Occ=0.000000D+00  E= 3.330494D-01

 Vector  209  Occ=0.000000D+00  E= 3.377899D-01

 Vector  210  Occ=0.000000D+00  E= 3.423259D-01

 Vector  211  Occ=0.000000D+00  E= 3.454874D-01

 Vector  212  Occ=0.000000D+00  E= 3.467038D-01

 Vector  213  Occ=0.000000D+00  E= 3.490793D-01

 Vector  214  Occ=0.000000D+00  E= 3.502514D-01

 Vector  215  Occ=0.000000D+00  E= 3.522537D-01

 Vector  216  Occ=0.000000D+00  E= 3.556292D-01

 Vector  217  Occ=0.000000D+00  E= 3.578283D-01

 Vector  218  Occ=0.000000D+00  E= 3.601461D-01

 Vector  219  Occ=0.000000D+00  E= 3.653388D-01

 Vector  220  Occ=0.000000D+00  E= 3.690923D-01

 Vector  221  Occ=0.000000D+00  E= 3.702260D-01

 Vector  222  Occ=0.000000D+00  E= 3.725231D-01

 Vector  223  Occ=0.000000D+00  E= 3.736925D-01

 Vector  224  Occ=0.000000D+00  E= 3.768477D-01

 Vector  225  Occ=0.000000D+00  E= 3.803291D-01

 Vector  226  Occ=0.000000D+00  E= 3.826056D-01

 Vector  227  Occ=0.000000D+00  E= 3.867305D-01

 Vector  228  Occ=0.000000D+00  E= 3.881067D-01

 Vector  229  Occ=0.000000D+00  E= 3.918249D-01

 Vector  230  Occ=0.000000D+00  E= 3.934958D-01

 Vector  231  Occ=0.000000D+00  E= 3.987777D-01

 Vector  232  Occ=0.000000D+00  E= 3.994578D-01

 Vector  233  Occ=0.000000D+00  E= 4.016266D-01

 Vector  234  Occ=0.000000D+00  E= 4.022693D-01

 Vector  235  Occ=0.000000D+00  E= 4.058027D-01

 Vector  236  Occ=0.000000D+00  E= 4.066772D-01

 Vector  237  Occ=0.000000D+00  E= 4.084544D-01

 Vector  238  Occ=0.000000D+00  E= 4.109123D-01

 Vector  239  Occ=0.000000D+00  E= 4.122261D-01

 Vector  240  Occ=0.000000D+00  E= 4.171076D-01

 Vector  241  Occ=0.000000D+00  E= 4.200675D-01

 Vector  242  Occ=0.000000D+00  E= 4.231525D-01

 Vector  243  Occ=0.000000D+00  E= 4.236868D-01

 Vector  244  Occ=0.000000D+00  E= 4.277886D-01

 Vector  245  Occ=0.000000D+00  E= 4.312867D-01

 Vector  246  Occ=0.000000D+00  E= 4.334134D-01

 Vector  247  Occ=0.000000D+00  E= 4.355773D-01

 Vector  248  Occ=0.000000D+00  E= 4.384683D-01

 Vector  249  Occ=0.000000D+00  E= 4.392805D-01

 Vector  250  Occ=0.000000D+00  E= 4.430960D-01

 Vector  251  Occ=0.000000D+00  E= 4.466350D-01

 Vector  252  Occ=0.000000D+00  E= 4.485482D-01

 Vector  253  Occ=0.000000D+00  E= 4.535460D-01

 Vector  254  Occ=0.000000D+00  E= 4.556510D-01

 Vector  255  Occ=0.000000D+00  E= 4.609138D-01

 Vector  256  Occ=0.000000D+00  E= 4.620232D-01

 Vector  257  Occ=0.000000D+00  E= 4.632351D-01

 Vector  258  Occ=0.000000D+00  E= 4.654856D-01

 Vector  259  Occ=0.000000D+00  E= 4.669268D-01

 Vector  260  Occ=0.000000D+00  E= 4.703841D-01

 Vector  261  Occ=0.000000D+00  E= 4.715865D-01

 Vector  262  Occ=0.000000D+00  E= 4.735680D-01

 Vector  263  Occ=0.000000D+00  E= 4.753508D-01

 Vector  264  Occ=0.000000D+00  E= 4.814448D-01

 Vector  265  Occ=0.000000D+00  E= 4.852233D-01

 Vector  266  Occ=0.000000D+00  E= 4.853392D-01

 Vector  267  Occ=0.000000D+00  E= 4.910203D-01

 Vector  268  Occ=0.000000D+00  E= 4.916035D-01

 Vector  269  Occ=0.000000D+00  E= 4.934607D-01

 Vector  270  Occ=0.000000D+00  E= 4.965355D-01

 Vector  271  Occ=0.000000D+00  E= 4.978622D-01

 Vector  272  Occ=0.000000D+00  E= 4.992995D-01

 Vector  273  Occ=0.000000D+00  E= 5.055132D-01

       Multipole analysis of the density wrt the origin
       ------------------------------------------------

     L   x y z        total         open         nuclear
     -   - - -        -----         ----         -------
     0   0 0 0     -0.000000      0.000000    188.000000

     1   1 0 0      0.616893      0.000000     -0.000000
     1   0 1 0      2.290481      0.000000      0.000000
     1   0 0 1      0.015531      0.000000     -0.000000

     2   2 0 0   -148.603108      0.000000   2433.952368
     2   1 1 0     -6.835990      0.000000    -10.265147
     2   1 0 1      0.134525      0.000000      1.514026
     2   0 2 0   -139.649644      0.000000   6785.782756
     2   0 1 1      0.464942      0.000000     -3.015757

 Total times  cpu:    35992.4s     wall:    36111.8s
