============================== echo of input deck ==============================
start ASN_MET_3
geometry
H          6.67000        3.55600        0.77700
C          6.71200        4.38000        1.48800
H          7.70300        4.83100        1.46800
H          6.49700        4.01000        2.48900
C          5.68200        5.41500        1.10600
O          4.97600        5.25000        0.12100
N          5.59900        6.49200        1.88200
H          6.21600        6.54100        2.68300
C          4.65200        7.60200        1.70300
H          3.67100        7.17500        1.48700
C          4.54600        8.36000        3.04300
H          3.93700        9.25600        2.92000
H          4.05100        7.72000        3.77200
C          5.90000        8.74400        3.61700
O          6.49000        8.01000        4.38900
N          6.46200        9.85500        3.21200
H          7.36900       10.07100        3.58000
H          6.05100       10.34500        2.42600
C          4.99100        8.52100        0.50000
O          5.24100        9.71400        0.67100
N          5.00300        7.97600       -0.72000
H          4.78400        6.98600       -0.79000
C          5.43000        8.67100       -1.94900
H          6.41600        9.09400       -1.75100
C          5.59000        7.64900       -3.09300
H          6.23800        8.09500       -3.84800
H          6.09500        6.75700       -2.71900
C          4.28300        7.24200       -3.79700
H          3.81000        8.13600       -4.20300
H          4.53600        6.60800       -4.64600
S          3.05600        6.36300       -2.78700
C          3.78800        4.70400       -2.76500
H          4.80700        4.75100       -2.38500
H          3.19600        4.05700       -2.11800
H          3.79700        4.29400       -3.77500
C          4.54000        9.85400       -2.38800
O          4.90900       10.59600       -3.29000
N          3.36500       10.05000       -1.80400
H          3.06800        9.43600       -1.06600
H          2.80600       10.82900       -2.10800
end

basis
 * library aug-cc-pvdz
end

echo

scf
 direct
end

task scf energy
================================================================================

 Output coordinates in angstroms (scale by  1.889725989 to convert to a.u.)

  No.       Tag          Charge          X              Y              Z
 ---- ---------------- ---------- -------------- -------------- --------------
    1 H                    1.0000    -4.15059601     1.24611079     1.39475460
    2 C                    6.0000    -3.36312549     1.97754287     1.21823747
    3 H                    1.0000    -2.91504907     2.26960057     2.16682159
    4 H                    1.0000    -3.78172325     2.85299397     0.72479315
    5 C                    6.0000    -2.30692336     1.36226157     0.33284775
    6 O                    8.0000    -2.42033580     0.20728523    -0.05322643
    7 N                    7.0000    -1.26957679     2.13158203     0.01496080
    8 H                    1.0000    -1.26256707     3.07918721     0.37089099
    9 C                    6.0000    -0.14884562     1.73807882    -0.85110321
   10 H                    1.0000    -0.56124795     1.22467380    -1.72155459
   11 C                    6.0000     0.54192413     3.02393901    -1.35190330
   12 H                    1.0000     1.44499097     2.77219505    -1.90860901
   13 H                    1.0000    -0.13186094     3.54473084    -2.03076672
   14 C                    6.0000     0.89231052     3.98609896    -0.22863770
   15 O                    8.0000     0.11882763     4.86010045     0.11876067
   16 N                    7.0000     2.02016833     3.81722564     0.41448635
   17 H                    1.0000     2.21452378     4.44397825     1.17220406
   18 H                    1.0000     2.55004445     2.97025097     0.24512813
   19 C                    6.0000     0.82769618     0.73252644    -0.18633142
   20 O                    8.0000     2.00986089     1.02677147    -0.01055751
   21 N                    7.0000     0.34401169    -0.45580212     0.18715693
   22 H                    1.0000    -0.64053384    -0.63466411     0.00928199
   23 C                    6.0000     1.09782700    -1.47138105     0.94620693
   24 H                    1.0000     1.50711262    -0.97390475     1.82673610
   25 C                    6.0000     0.13345419    -2.56707581     1.44446196
   26 H                    1.0000     0.61425526    -3.07746464     2.27943417
   27 H                    1.0000    -0.77774913    -2.10573420     1.82843777
   28 C                    6.0000    -0.23359709    -3.64081225     0.40432860
   29 H                    1.0000     0.68108690    -4.12328329     0.06027061
   30 H                    1.0000    -0.82543968    -4.40873109     0.90110724
   31 S                   16.0000    -1.15758090    -3.07687233    -1.05392229
   32 C                    6.0000    -2.81809240    -2.92275326    -0.34150536
   33 H                    1.0000    -2.79350312    -2.26005284     0.52174056
   34 H                    1.0000    -3.49446173    -2.50894252    -1.08914645
   35 H                    1.0000    -3.17737925    -3.90480616    -0.03366437
   36 C                    6.0000     2.30420577    -2.09305867     0.20967642
   37 O                    8.0000     3.08889532    -2.81092840     0.81733945
   38 N                    7.0000     2.47489690    -1.86866325    -1.08670633
   39 H                    1.0000     1.82596105    -1.28021787    -1.57911195
   40 H                    1.0000     3.26994213    -2.28438868    -1.54147381

         Total SCF energy =  -1343.196718091503

 Vector  137  Occ=0.000000D+00  E= 2.158118D-01

 Vector  138  Occ=0.000000D+00  E= 2.190375D-01

 Vector  139  Occ=0.000000D+00  E= 2.229031D-01

 Vector  140  Occ=0.000000D+00  E= 2.278840D-01

 Vector  141  Occ=0.000000D+00  E= 2.317095D-01

 Vector  142  Occ=0.000000D+00  E= 2.348182D-01

 Vector  143  Occ=0.000000D+00  E= 2.370993D-01

 Vector  144  Occ=0.000000D+00  E= 2.423085D-01

 Vector  145  Occ=0.000000D+00  E= 2.458598D-01

 Vector  146  Occ=0.000000D+00  E= 2.498227D-01

 Vector  147  Occ=0.000000D+00  E= 2.522048D-01

 Vector  148  Occ=0.000000D+00  E= 2.539289D-01

 Vector  149  Occ=0.000000D+00  E= 2.576750D-01

 Vector  150  Occ=0.000000D+00  E= 2.579549D-01

 Vector  151  Occ=0.000000D+00  E= 2.650839D-01

 Vector  152  Occ=0.000000D+00  E= 2.692183D-01

 Vector  153  Occ=0.000000D+00  E= 2.744212D-01

 Vector  154  Occ=0.000000D+00  E= 2.791421D-01

 Vector  155  Occ=0.000000D+00  E= 2.870032D-01

 Vector  156  Occ=0.000000D+00  E= 2.892313D-01

 Vector  157  Occ=0.000000D+00  E= 2.947593D-01

 Vector  158  Occ=0.000000D+00  E= 2.981254D-01

 Vector  159  Occ=0.000000D+00  E= 3.029554D-01

 Vector  160  Occ=0.000000D+00  E= 3.079258D-01

 Vector  161  Occ=0.000000D+00  E= 3.107928D-01

 Vector  162  Occ=0.000000D+00  E= 3.157019D-01

 Vector  163  Occ=0.000000D+00  E= 3.212930D-01

 Vector  164  Occ=0.000000D+00  E= 3.260215D-01

 Vector  165  Occ=0.000000D+00  E= 3.292398D-01

 Vector  166  Occ=0.000000D+00  E= 3.309665D-01

 Vector  167  Occ=0.000000D+00  E= 3.333500D-01

 Vector  168  Occ=0.000000D+00  E= 3.368505D-01

 Vector  169  Occ=0.000000D+00  E= 3.422488D-01

 Vector  170  Occ=0.000000D+00  E= 3.461073D-01

 Vector  171  Occ=0.000000D+00  E= 3.476576D-01

 Vector  172  Occ=0.000000D+00  E= 3.542516D-01

 Vector  173  Occ=0.000000D+00  E= 3.571586D-01

 Vector  174  Occ=0.000000D+00  E= 3.617692D-01

 Vector  175  Occ=0.000000D+00  E= 3.643687D-01

 Vector  176  Occ=0.000000D+00  E= 3.682254D-01

 Vector  177  Occ=0.000000D+00  E= 3.713902D-01

 Vector  178  Occ=0.000000D+00  E= 3.764813D-01

 Vector  179  Occ=0.000000D+00  E= 3.793135D-01

 Vector  180  Occ=0.000000D+00  E= 3.829706D-01

 Vector  181  Occ=0.000000D+00  E= 3.857878D-01

 Vector  182  Occ=0.000000D+00  E= 3.881265D-01

 Vector  183  Occ=0.000000D+00  E= 3.917671D-01

 Vector  184  Occ=0.000000D+00  E= 3.936629D-01

 Vector  185  Occ=0.000000D+00  E= 3.996072D-01

 Vector  186  Occ=0.000000D+00  E= 4.031073D-01

 Vector  187  Occ=0.000000D+00  E= 4.049194D-01

 Vector  188  Occ=0.000000D+00  E= 4.081568D-01

 Vector  189  Occ=0.000000D+00  E= 4.123228D-01

 Vector  190  Occ=0.000000D+00  E= 4.143529D-01

 Vector  191  Occ=0.000000D+00  E= 4.189872D-01

 Vector  192  Occ=0.000000D+00  E= 4.232297D-01

 Vector  193  Occ=0.000000D+00  E= 4.261802D-01

 Vector  194  Occ=0.000000D+00  E= 4.291633D-01

 Vector  195  Occ=0.000000D+00  E= 4.307025D-01

 Vector  196  Occ=0.000000D+00  E= 4.328507D-01

 Vector  197  Occ=0.000000D+00  E= 4.335846D-01

 Vector  198  Occ=0.000000D+00  E= 4.374074D-01

 Vector  199  Occ=0.000000D+00  E= 4.403772D-01

 Vector  200  Occ=0.000000D+00  E= 4.457281D-01

 Vector  201  Occ=0.000000D+00  E= 4.481939D-01

 Vector  202  Occ=0.000000D+00  E= 4.526471D-01

 Vector  203  Occ=0.000000D+00  E= 4.542757D-01

 Vector  204  Occ=0.000000D+00  E= 4.593002D-01

 Vector  205  Occ=0.000000D+00  E= 4.618911D-01

 Vector  206  Occ=0.000000D+00  E= 4.655664D-01

 Vector  207  Occ=0.000000D+00  E= 4.667010D-01

 Vector  208  Occ=0.000000D+00  E= 4.734958D-01

 Vector  209  Occ=0.000000D+00  E= 4.794976D-01

 Vector  210  Occ=0.000000D+00  E= 4.817008D-01

 Vector  211  Occ=0.000000D+00  E= 4.851873D-01

 Vector  212  Occ=0.000000D+00  E= 4.859167D-01

 Vector  213  Occ=0.000000D+00  E= 4.876294D-01

 Vector  214  Occ=0.000000D+00  E= 4.933011D-01

 Vector  215  Occ=0.000000D+00  E= 4.939102D-01

 Vector  216  Occ=0.000000D+00  E= 5.025544D-01

       Multipole analysis of the density wrt the origin
       ------------------------------------------------

     L   x y z        total         open         nuclear
     -   - - -        -----         ----         -------
     0   0 0 0      0.000000      0.000000    162.000000

     1   1 0 0     -1.275485      0.000000      0.000000
     1   0 1 0      0.466445      0.000000     -0.000000
     1   0 0 1     -0.164652      0.000000      0.000000

     2   2 0 0    -98.066674      0.000000   2009.658485
     2   1 1 0      7.579376      0.000000     19.797695
     2   1 0 1     -9.272510      0.000000    -30.349971
     2   0 2 0   -110.786565      0.000000   4098.590411
     2   0 1 1     -0.251521      0.000000    -14.889509

 Total times  cpu:     6881.9s     wall:     6913.9s
