============================== echo of input deck ==============================
start ASN_ASN_2
geometry
H         12.96200       16.95100       -8.99700
C         11.95100       16.59800       -8.79300
H         11.25800       17.43700       -8.82800
H         11.91900       16.13000       -7.81200
C         11.56500       15.58500       -9.84400
O         12.35000       15.28600      -10.73500
N         10.34900       15.05300       -9.74600
H          9.73600       15.36700       -9.00700
C          9.79700       14.08700      -10.69700
H         10.17100       14.33600      -11.69200
C         10.30100       12.67800      -10.32200
H         11.39100       12.65400      -10.35200
H          9.97300       12.42700       -9.31300
C          9.76500       11.63100      -11.27500
O          8.85400       10.89200      -10.95700
N         10.19700       11.64800      -12.51300
H          9.68300       11.08400      -13.17700
H         10.95800       12.24200      -12.78900
C          8.25700       14.17300      -10.75700
O          7.62000       14.68400       -9.83900
N          7.66200       13.66100      -11.83800
H          8.24500       13.20700      -12.53100
C          6.21600       13.61200      -12.07600
H          5.79300       14.58900      -11.83800
C          6.00700       13.33300      -13.57500
H          4.94400       13.38400      -13.81000
H          6.51800       14.09200      -14.16600
C          6.54500       11.96900      -13.97000
O          7.72300       11.80100      -14.24200
N          5.71800       10.95100      -13.95900
H          4.77200       11.07600      -13.63900
H          6.10400       10.05000      -14.17700
C          5.44300       12.57700      -11.22200
O          4.23100       12.45800      -11.36500
N          6.09200       11.76900      -10.39500
H          5.56300       11.09800       -9.86600
H          7.10200       11.77800      -10.35700
end

basis
 * library aug-cc-pvdz
end

echo

scf
 direct
end

task scf energy
================================================================================

 Output coordinates in angstroms (scale by  1.889725989 to convert to a.u.)

  No.       Tag          Charge          X              Y              Z
 ---- ---------------- ---------- -------------- -------------- --------------
    1 H                    1.0000    -0.56511519    -6.34475113     0.73371559
    2 C                    6.0000    -1.10193585    -5.47432042     0.35619743
    3 H                    1.0000    -1.98964411    -5.30231148     0.96264774
    4 H                    1.0000    -1.38623397    -5.64213272    -0.67986367
    5 C                    6.0000    -0.19748843    -4.26808515     0.43827867
    6 O                    8.0000     0.94108474    -4.37535697     0.87605818
    7 N                    7.0000    -0.70244154    -3.11040078     0.01866784
    8 H                    1.0000    -1.66066657    -3.08166923    -0.29986833
    9 C                    6.0000     0.01826225    -1.83721911     0.06174322
   10 H                    1.0000     0.64671887    -1.83103090     0.95443912
   11 C                    6.0000     0.92881418    -1.74021620    -1.17979116
   12 H                    1.0000     1.63479488    -2.57154391    -1.18763237
   13 H                    1.0000     0.32245837    -1.78738688    -2.08465224
   14 C                    6.0000     1.70655273    -0.44147927    -1.19070620
   15 O                    8.0000     1.38947252     0.48069566    -1.91611611
   16 N                    7.0000     2.63420338    -0.27289932    -0.27933246
   17 H                    1.0000     2.99486886     0.66606579    -0.17231408
   18 H                    1.0000     2.91792832    -1.02819212     0.31830116
   19 C                    6.0000    -0.95342365    -0.64404336     0.18320990
   20 O                    8.0000    -2.13526114    -0.76162959    -0.13150842
   21 N                    7.0000    -0.44709418     0.50805972     0.63156126
   22 H                    1.0000     0.54720717     0.54813240     0.82133222
   23 C                    6.0000    -1.18751940     1.76370944     0.78991295
   24 H                    1.0000    -2.13376853     1.54685386     1.28759584
   25 C                    6.0000    -0.34816130     2.67982669     1.69805951
   26 H                    1.0000    -0.90946072     3.58783804     1.91772599
   27 H                    1.0000    -0.14296308     2.17576957     2.64161826
   28 C                    6.0000     0.97422115     3.04990225     1.04974343
   29 O                    8.0000     1.94745759     2.31652971     1.11951117
   30 N                    7.0000     1.03377321     4.16233871     0.35741933
   31 H                    1.0000     0.20292851     4.71357052     0.22037347
   32 H                    1.0000     1.90307067     4.36491853    -0.10258540
   33 C                    6.0000    -1.54059150     2.49079371    -0.53098014
   34 O                    8.0000    -2.14745274     3.55559835    -0.49271098
   35 N                    7.0000    -1.12599877     2.00942871    -1.69476474
   36 H                    1.0000    -1.35884759     2.51291246    -2.53274359
   37 H                    1.0000    -0.52515940     1.19735916    -1.72882474

         Total SCF energy =  -1035.410438926538

 Vector  122  Occ=0.000000D+00  E= 1.985099D-01

 Vector  123  Occ=0.000000D+00  E= 2.028823D-01

 Vector  124  Occ=0.000000D+00  E= 2.051153D-01

 Vector  125  Occ=0.000000D+00  E= 2.086944D-01

 Vector  126  Occ=0.000000D+00  E= 2.100682D-01

 Vector  127  Occ=0.000000D+00  E= 2.120959D-01

 Vector  128  Occ=0.000000D+00  E= 2.147045D-01

 Vector  129  Occ=0.000000D+00  E= 2.248255D-01

 Vector  130  Occ=0.000000D+00  E= 2.269172D-01

 Vector  131  Occ=0.000000D+00  E= 2.306264D-01

 Vector  132  Occ=0.000000D+00  E= 2.321749D-01

 Vector  133  Occ=0.000000D+00  E= 2.380708D-01

 Vector  134  Occ=0.000000D+00  E= 2.427625D-01

 Vector  135  Occ=0.000000D+00  E= 2.486660D-01

 Vector  136  Occ=0.000000D+00  E= 2.538443D-01

 Vector  137  Occ=0.000000D+00  E= 2.559246D-01

 Vector  138  Occ=0.000000D+00  E= 2.588611D-01

 Vector  139  Occ=0.000000D+00  E= 2.635383D-01

 Vector  140  Occ=0.000000D+00  E= 2.656101D-01

 Vector  141  Occ=0.000000D+00  E= 2.682205D-01

 Vector  142  Occ=0.000000D+00  E= 2.753163D-01

 Vector  143  Occ=0.000000D+00  E= 2.839060D-01

 Vector  144  Occ=0.000000D+00  E= 2.879495D-01

 Vector  145  Occ=0.000000D+00  E= 2.951469D-01

 Vector  146  Occ=0.000000D+00  E= 2.984778D-01

 Vector  147  Occ=0.000000D+00  E= 3.064398D-01

 Vector  148  Occ=0.000000D+00  E= 3.067552D-01

 Vector  149  Occ=0.000000D+00  E= 3.079170D-01

 Vector  150  Occ=0.000000D+00  E= 3.131339D-01

 Vector  151  Occ=0.000000D+00  E= 3.230007D-01

 Vector  152  Occ=0.000000D+00  E= 3.242559D-01

 Vector  153  Occ=0.000000D+00  E= 3.273998D-01

 Vector  154  Occ=0.000000D+00  E= 3.298493D-01

 Vector  155  Occ=0.000000D+00  E= 3.312361D-01

 Vector  156  Occ=0.000000D+00  E= 3.357226D-01

 Vector  157  Occ=0.000000D+00  E= 3.395312D-01

 Vector  158  Occ=0.000000D+00  E= 3.438548D-01

 Vector  159  Occ=0.000000D+00  E= 3.458985D-01

 Vector  160  Occ=0.000000D+00  E= 3.529751D-01

 Vector  161  Occ=0.000000D+00  E= 3.550960D-01

 Vector  162  Occ=0.000000D+00  E= 3.601785D-01

 Vector  163  Occ=0.000000D+00  E= 3.649836D-01

 Vector  164  Occ=0.000000D+00  E= 3.667265D-01

 Vector  165  Occ=0.000000D+00  E= 3.729450D-01

 Vector  166  Occ=0.000000D+00  E= 3.776448D-01

 Vector  167  Occ=0.000000D+00  E= 3.795577D-01

 Vector  168  Occ=0.000000D+00  E= 3.811092D-01

 Vector  169  Occ=0.000000D+00  E= 3.829071D-01

 Vector  170  Occ=0.000000D+00  E= 3.849652D-01

 Vector  171  Occ=0.000000D+00  E= 3.922604D-01

 Vector  172  Occ=0.000000D+00  E= 3.941256D-01

 Vector  173  Occ=0.000000D+00  E= 3.960640D-01

 Vector  174  Occ=0.000000D+00  E= 4.010060D-01

 Vector  175  Occ=0.000000D+00  E= 4.028538D-01

 Vector  176  Occ=0.000000D+00  E= 4.049006D-01

 Vector  177  Occ=0.000000D+00  E= 4.064594D-01

 Vector  178  Occ=0.000000D+00  E= 4.124353D-01

 Vector  179  Occ=0.000000D+00  E= 4.134252D-01

 Vector  180  Occ=0.000000D+00  E= 4.189969D-01

 Vector  181  Occ=0.000000D+00  E= 4.203964D-01

 Vector  182  Occ=0.000000D+00  E= 4.236194D-01

 Vector  183  Occ=0.000000D+00  E= 4.286971D-01

 Vector  184  Occ=0.000000D+00  E= 4.305296D-01

 Vector  185  Occ=0.000000D+00  E= 4.371967D-01

 Vector  186  Occ=0.000000D+00  E= 4.420917D-01

 Vector  187  Occ=0.000000D+00  E= 4.440019D-01

 Vector  188  Occ=0.000000D+00  E= 4.460258D-01

 Vector  189  Occ=0.000000D+00  E= 4.494157D-01

 Vector  190  Occ=0.000000D+00  E= 4.543264D-01

 Vector  191  Occ=0.000000D+00  E= 4.581301D-01

 Vector  192  Occ=0.000000D+00  E= 4.629257D-01

 Vector  193  Occ=0.000000D+00  E= 4.693368D-01

 Vector  194  Occ=0.000000D+00  E= 4.742719D-01

 Vector  195  Occ=0.000000D+00  E= 4.764130D-01

 Vector  196  Occ=0.000000D+00  E= 4.814425D-01

 Vector  197  Occ=0.000000D+00  E= 4.847027D-01

 Vector  198  Occ=0.000000D+00  E= 4.887955D-01

 Vector  199  Occ=0.000000D+00  E= 4.919908D-01

 Vector  200  Occ=0.000000D+00  E= 4.954491D-01

 Vector  201  Occ=0.000000D+00  E= 5.008623D-01

       Multipole analysis of the density wrt the origin
       ------------------------------------------------

     L   x y z        total         open         nuclear
     -   - - -        -----         ----         -------
     0   0 0 0      0.000000      0.000000    152.000000

     1   1 0 0      0.527147      0.000000     -0.000000
     1   0 1 0     -0.145216      0.000000     -0.000000
     1   0 0 1      0.270294      0.000000      0.000000

     2   2 0 0    -96.492498      0.000000   1078.071412
     2   1 1 0     13.474050      0.000000     33.133682
     2   1 0 1     -3.143567      0.000000     -4.760960
     2   0 2 0    -83.546737      0.000000   4295.833480
     2   0 1 1      6.557898      0.000000     12.010143

 Total times  cpu:     5219.7s     wall:     5237.6s
