============================== echo of input deck ==============================
start ASN_GLN_5
geometry
H         15.12700        5.88600       -8.72600
C         15.19600        5.13400       -9.51000
H         14.35400        4.44700       -9.44400
H         16.12800        4.58100       -9.40100
C         15.18700        5.81400      -10.85800
O         16.14800        5.71900      -11.60800
N         14.10700        6.52900      -11.16500
H         13.36200        6.58900      -10.48600
C         13.94000        7.26800      -12.42600
H         14.26900        6.62800      -13.24700
C         12.44000        7.57200      -12.59900
H         12.26100        7.92100      -13.61600
H         11.85300        6.66700      -12.44700
C         11.97200        8.63300      -11.61700
O         11.77000        8.37900      -10.44000
N         11.86300        9.86800      -12.04500
H         12.18700       10.09900      -12.97100
H         11.61500       10.57500      -11.37300
C         14.76700        8.57500      -12.51500
O         14.57100        9.36000      -13.44100
N         15.58200        8.87000      -11.50000
H         15.76300        8.14800      -10.81600
C         16.19600       10.17400      -11.23900
H         16.61400       10.56300      -12.16800
C         15.12400       11.16000      -10.72500
H         15.58800       12.13100      -10.54500
H         14.38100       11.29800      -11.51200
C         14.40200       10.70700       -9.44100
H         14.11400        9.65900       -9.52000
H         15.07200       10.80700       -8.58700
C         13.14700       11.53200       -9.17600
O         13.18300       12.74000       -9.03900
N         11.98100       10.92500       -9.10700
H         11.90700        9.92100       -9.24900
H         11.19900       11.50000       -8.84800
C         17.33300       10.02700      -10.21500
O         17.33200        9.11200       -9.39800
N         18.30000       10.93400      -10.21900
H         18.28900       11.69000      -10.88200
H         19.03900       10.83900       -9.54100
end

basis
 * library aug-cc-pvdz
end

echo

scf
 direct
end

task scf energy
================================================================================

 Output coordinates in angstroms (scale by  1.889725989 to convert to a.u.)

  No.       Tag          Charge          X              Y              Z
 ---- ---------------- ---------- -------------- -------------- --------------
    1 H                    1.0000     0.61222434     2.41281552    -2.90952214
    2 C                    6.0000     0.43300903     3.36378087    -2.41105670
    3 H                    1.0000    -0.46385416     3.83280291    -2.81223462
    4 H                    1.0000     1.28836194     4.02041662    -2.56440238
    5 C                    6.0000     0.25863857     3.12756831    -0.93004908
    6 O                    8.0000     1.03990896     3.61695059    -0.12682586
    7 N                    7.0000    -0.75696048     2.35110791    -0.55918278
    8 H                    1.0000    -1.34598842     1.95538262    -1.27759323
    9 C                    6.0000    -1.06096447     2.00464211     0.83784050
   10 H                    1.0000    -0.97947130     2.90952533     1.44317282
   11 C                    6.0000    -2.51377752     1.49595169     0.89181540
   12 H                    1.0000    -2.83438649     1.43972266     1.93209382
   13 H                    1.0000    -3.17472586     2.19033262     0.37443699
   14 C                    6.0000    -2.64510265     0.12318155     0.25359535
   15 O                    8.0000    -2.65267412    -0.02731928    -0.95799088
   16 N                    7.0000    -2.67050999    -0.92577653     1.04057147
   17 H                    1.0000    -2.49981351    -0.80622967     2.02666694
   18 H                    1.0000    -2.69254172    -1.83405845     0.60758702
   19 C                    6.0000    -0.10196917     0.95905322     1.46007107
   20 O                    8.0000    -0.36492763     0.46419597     2.55464229
   21 N                    7.0000     0.92147183     0.52958240     0.71872207
   22 H                    1.0000     1.13237473     1.03490442    -0.13102532
   23 C                    6.0000     1.73885652    -0.65679005     0.98317559
   24 H                    1.0000     2.02113435    -0.66705516     2.03640864
   25 C                    6.0000     0.92150293    -1.93061923     0.67516855
   26 H                    1.0000     1.53405860    -2.80849890     0.88644998
   27 H                    1.0000     0.06780935    -1.96150205     1.35392883
   28 C                    6.0000     0.40201474    -2.02221898    -0.77289585
   29 H                    1.0000    -0.03024399    -1.07002911    -1.07945062
   30 H                    1.0000     1.22843285    -2.24764938    -1.44701026
   31 C                    6.0000    -0.66151612    -3.10456960    -0.92552043
   32 O                    8.0000    -0.44264654    -4.27022272    -0.65593203
   33 N                    7.0000    -1.86268996    -2.77089921    -1.34814493
   34 H                    1.0000    -2.09281181    -1.80179667    -1.55195905
   35 H                    1.0000    -2.49968993    -3.53040875    -1.51125933
   36 C                    6.0000     3.01959074    -0.61581871     0.13406123
   37 O                    8.0000     3.05323486    -0.00287195    -0.92795541
   38 N                    7.0000     4.07858732    -1.28642367     0.56599784
   39 H                    1.0000     4.04155092    -1.79862148     1.43058312
   40 H                    1.0000     4.91342921    -1.26401738     0.00264450

         Total SCF energy =  -1074.444119500807

 Vector  133  Occ=0.000000D+00  E= 2.145769D-01

 Vector  134  Occ=0.000000D+00  E= 2.188022D-01

 Vector  135  Occ=0.000000D+00  E= 2.206489D-01

 Vector  136  Occ=0.000000D+00  E= 2.265547D-01

 Vector  137  Occ=0.000000D+00  E= 2.279632D-01

 Vector  138  Occ=0.000000D+00  E= 2.297712D-01

 Vector  139  Occ=0.000000D+00  E= 2.371308D-01

 Vector  140  Occ=0.000000D+00  E= 2.429836D-01

 Vector  141  Occ=0.000000D+00  E= 2.437239D-01

 Vector  142  Occ=0.000000D+00  E= 2.470439D-01

 Vector  143  Occ=0.000000D+00  E= 2.473304D-01

 Vector  144  Occ=0.000000D+00  E= 2.532934D-01

 Vector  145  Occ=0.000000D+00  E= 2.562293D-01

 Vector  146  Occ=0.000000D+00  E= 2.594734D-01

 Vector  147  Occ=0.000000D+00  E= 2.631084D-01

 Vector  148  Occ=0.000000D+00  E= 2.637178D-01

 Vector  149  Occ=0.000000D+00  E= 2.684018D-01

 Vector  150  Occ=0.000000D+00  E= 2.784009D-01

 Vector  151  Occ=0.000000D+00  E= 2.829759D-01

 Vector  152  Occ=0.000000D+00  E= 2.915646D-01

 Vector  153  Occ=0.000000D+00  E= 2.948727D-01

 Vector  154  Occ=0.000000D+00  E= 2.995093D-01

 Vector  155  Occ=0.000000D+00  E= 3.037869D-01

 Vector  156  Occ=0.000000D+00  E= 3.068913D-01

 Vector  157  Occ=0.000000D+00  E= 3.098083D-01

 Vector  158  Occ=0.000000D+00  E= 3.126316D-01

 Vector  159  Occ=0.000000D+00  E= 3.141717D-01

 Vector  160  Occ=0.000000D+00  E= 3.225999D-01

 Vector  161  Occ=0.000000D+00  E= 3.250019D-01

 Vector  162  Occ=0.000000D+00  E= 3.267081D-01

 Vector  163  Occ=0.000000D+00  E= 3.343812D-01

 Vector  164  Occ=0.000000D+00  E= 3.356788D-01

 Vector  165  Occ=0.000000D+00  E= 3.385412D-01

 Vector  166  Occ=0.000000D+00  E= 3.403721D-01

 Vector  167  Occ=0.000000D+00  E= 3.491899D-01

 Vector  168  Occ=0.000000D+00  E= 3.528620D-01

 Vector  169  Occ=0.000000D+00  E= 3.544431D-01

 Vector  170  Occ=0.000000D+00  E= 3.591244D-01

 Vector  171  Occ=0.000000D+00  E= 3.629927D-01

 Vector  172  Occ=0.000000D+00  E= 3.649873D-01

 Vector  173  Occ=0.000000D+00  E= 3.681861D-01

 Vector  174  Occ=0.000000D+00  E= 3.693963D-01

 Vector  175  Occ=0.000000D+00  E= 3.741054D-01

 Vector  176  Occ=0.000000D+00  E= 3.770687D-01

 Vector  177  Occ=0.000000D+00  E= 3.798294D-01

 Vector  178  Occ=0.000000D+00  E= 3.799243D-01

 Vector  179  Occ=0.000000D+00  E= 3.830717D-01

 Vector  180  Occ=0.000000D+00  E= 3.865873D-01

 Vector  181  Occ=0.000000D+00  E= 3.904417D-01

 Vector  182  Occ=0.000000D+00  E= 3.948171D-01

 Vector  183  Occ=0.000000D+00  E= 3.994833D-01

 Vector  184  Occ=0.000000D+00  E= 4.016753D-01

 Vector  185  Occ=0.000000D+00  E= 4.047412D-01

 Vector  186  Occ=0.000000D+00  E= 4.060360D-01

 Vector  187  Occ=0.000000D+00  E= 4.114753D-01

 Vector  188  Occ=0.000000D+00  E= 4.134157D-01

 Vector  189  Occ=0.000000D+00  E= 4.157776D-01

 Vector  190  Occ=0.000000D+00  E= 4.178438D-01

 Vector  191  Occ=0.000000D+00  E= 4.236322D-01

 Vector  192  Occ=0.000000D+00  E= 4.274714D-01

 Vector  193  Occ=0.000000D+00  E= 4.293578D-01

 Vector  194  Occ=0.000000D+00  E= 4.359821D-01

 Vector  195  Occ=0.000000D+00  E= 4.375006D-01

 Vector  196  Occ=0.000000D+00  E= 4.423160D-01

 Vector  197  Occ=0.000000D+00  E= 4.444896D-01

 Vector  198  Occ=0.000000D+00  E= 4.470580D-01

 Vector  199  Occ=0.000000D+00  E= 4.485477D-01

 Vector  200  Occ=0.000000D+00  E= 4.564272D-01

 Vector  201  Occ=0.000000D+00  E= 4.596363D-01

 Vector  202  Occ=0.000000D+00  E= 4.616219D-01

 Vector  203  Occ=0.000000D+00  E= 4.663277D-01

 Vector  204  Occ=0.000000D+00  E= 4.715080D-01

 Vector  205  Occ=0.000000D+00  E= 4.742622D-01

 Vector  206  Occ=0.000000D+00  E= 4.760372D-01

 Vector  207  Occ=0.000000D+00  E= 4.828892D-01

 Vector  208  Occ=0.000000D+00  E= 4.844415D-01

 Vector  209  Occ=0.000000D+00  E= 4.903145D-01

 Vector  210  Occ=0.000000D+00  E= 4.969101D-01

 Vector  211  Occ=0.000000D+00  E= 4.974679D-01

 Vector  212  Occ=0.000000D+00  E= 5.053947D-01

       Multipole analysis of the density wrt the origin
       ------------------------------------------------

     L   x y z        total         open         nuclear
     -   - - -        -----         ----         -------
     0   0 0 0     -0.000000      0.000000    160.000000

     1   1 0 0     -0.644384      0.000000     -0.000000
     1   0 1 0      0.175423      0.000000      0.000000
     1   0 0 1      0.239981      0.000000      0.000000

     2   2 0 0    -77.770580      0.000000   2176.602568
     2   1 1 0    -12.423285      0.000000    -22.833565
     2   1 0 1      2.953225      0.000000     -0.608985
     2   0 2 0   -111.180190      0.000000   2654.783592
     2   0 1 1     -8.019750      0.000000    -39.357922

 Total times  cpu:     6912.4s     wall:     6935.6s
