============================== echo of input deck ==============================
start ASN_CYS_3
geometry
H          6.88400        7.97900        4.76900
C          6.95500        6.91400        4.98400
H          6.15000        6.62300        5.65800
H          7.91600        6.69300        5.44700
C          6.82900        6.13300        3.69800
O          5.94200        5.29800        3.56600
N          7.74100        6.38000        2.75800
H          8.45600        7.06400        2.97200
C          7.79700        5.77000        1.41700
H          6.79200        5.81400        0.99300
C          8.71600        6.63800        0.53700
H          8.76000        6.23000       -0.47300
H          8.30700        7.64600        0.47200
C         10.12000        6.73500        1.10300
O         10.43300        7.62800        1.86900
N         10.98000        5.79400        0.79900
H         10.65400        4.98300        0.29000
H         11.89600        5.86500        1.20000
C          8.19300        4.26800        1.40100
O          8.89800        3.80800        0.50300
N          7.77000        3.51500        2.41400
H          7.20800        3.98200        3.11400
C          8.07200        2.10100        2.64000
H          8.20900        1.60600        1.67700
C          9.39100        2.00900        3.42500
H          9.60600        0.95800        3.63400
H         10.20000        2.41900        2.81900
S          9.27800        2.92900        4.99300
H         10.45400        2.53900        5.49900
C          6.93600        1.34600        3.36300
O          7.01100        0.13500        3.52500
N          5.86800        2.01200        3.79600
H          5.79300        3.01000        3.67000
H          5.14600        1.49200        4.26600
end

basis
 * library aug-cc-pvdz
end

echo

scf
 direct
end

task scf energy
================================================================================

 Output coordinates in angstroms (scale by  1.889725989 to convert to a.u.)

  No.       Tag          Charge          X              Y              Z
 ---- ---------------- ---------- -------------- -------------- --------------
    1 H                    1.0000    -3.82558858     1.93432998     0.87358838
    2 C                    6.0000    -3.36549639     0.95429723     0.98909590
    3 H                    1.0000    -4.13078919     0.18158512     0.92409646
    4 H                    1.0000    -2.86518501     0.89163502     1.95475265
    5 C                    6.0000    -2.35433802     0.74178618    -0.11182681
    6 O                    8.0000    -2.46076293    -0.21212321    -0.87350168
    7 N                    7.0000    -1.34920453     1.61471018    -0.17557138
    8 H                    1.0000    -1.32797233     2.35107563     0.51882916
    9 C                    6.0000    -0.27094484     1.62967595    -1.18088181
   10 H                    1.0000    -0.73401351     1.51025916    -2.16222988
   11 C                    6.0000     0.39652792     3.01726567    -1.14267339
   12 H                    1.0000     1.18423775     3.07350224    -1.89423887
   13 H                    1.0000    -0.34429525     3.78100035    -1.37817366
   14 C                    6.0000     0.97895958     3.33110466     0.22233923
   15 O                    8.0000     0.32313655     3.90325367     1.07364157
   16 N                    7.0000     2.19165216     2.91406000     0.49242709
   17 H                    1.0000     2.65669804     2.30819621    -0.17070141
   18 H                    1.0000     2.55036632     3.11309017     1.40709049
   19 C                    6.0000     0.75177960     0.46712555    -1.05603275
   20 O                    8.0000     1.94722759     0.64712573    -1.28740484
   21 N                    7.0000     0.28663124    -0.71380373    -0.65459779
   22 H                    1.0000    -0.70759916    -0.76455848    -0.47331662
   23 C                    6.0000     1.06949977    -1.92505853    -0.40629418
   24 H                    1.0000     1.93711081    -1.93235635    -1.06838241
   25 C                    6.0000     1.56875415    -1.88706744     1.04758056
   26 H                    1.0000     2.12175632    -2.80642031     1.25611328
   27 H                    1.0000     2.24008129    -1.03692744     1.17563853
   28 S                   16.0000     0.17309464    -1.74144475     2.20892528
   29 H                    1.0000     0.87819021    -1.89764311     3.33567029
   30 C                    6.0000     0.28643644    -3.22358658    -0.69592622
   31 O                    8.0000     0.85107058    -4.30762798    -0.62934906
   32 N                    7.0000    -0.99964085    -3.16098569    -1.03320257
   33 H                    1.0000    -1.47793522    -2.27478072    -1.09134261
   34 H                    1.0000    -1.48308643    -4.02501855    -1.21295680

         Total SCF energy =  -1265.123421733340

 Vector  113  Occ=0.000000D+00  E= 1.811546D-01

 Vector  114  Occ=0.000000D+00  E= 1.845737D-01

 Vector  115  Occ=0.000000D+00  E= 1.895960D-01

 Vector  116  Occ=0.000000D+00  E= 1.911910D-01

 Vector  117  Occ=0.000000D+00  E= 1.934171D-01

 Vector  118  Occ=0.000000D+00  E= 1.958974D-01

 Vector  119  Occ=0.000000D+00  E= 2.026547D-01

 Vector  120  Occ=0.000000D+00  E= 2.057657D-01

 Vector  121  Occ=0.000000D+00  E= 2.081944D-01

 Vector  122  Occ=0.000000D+00  E= 2.129274D-01

 Vector  123  Occ=0.000000D+00  E= 2.186752D-01

 Vector  124  Occ=0.000000D+00  E= 2.222497D-01

 Vector  125  Occ=0.000000D+00  E= 2.241899D-01

 Vector  126  Occ=0.000000D+00  E= 2.283861D-01

 Vector  127  Occ=0.000000D+00  E= 2.367433D-01

 Vector  128  Occ=0.000000D+00  E= 2.391381D-01

 Vector  129  Occ=0.000000D+00  E= 2.404542D-01

 Vector  130  Occ=0.000000D+00  E= 2.443558D-01

 Vector  131  Occ=0.000000D+00  E= 2.468057D-01

 Vector  132  Occ=0.000000D+00  E= 2.495828D-01

 Vector  133  Occ=0.000000D+00  E= 2.514914D-01

 Vector  134  Occ=0.000000D+00  E= 2.629321D-01

 Vector  135  Occ=0.000000D+00  E= 2.694706D-01

 Vector  136  Occ=0.000000D+00  E= 2.696914D-01

 Vector  137  Occ=0.000000D+00  E= 2.818685D-01

 Vector  138  Occ=0.000000D+00  E= 2.845109D-01

 Vector  139  Occ=0.000000D+00  E= 2.911059D-01

 Vector  140  Occ=0.000000D+00  E= 2.973580D-01

 Vector  141  Occ=0.000000D+00  E= 3.017639D-01

 Vector  142  Occ=0.000000D+00  E= 3.092318D-01

 Vector  143  Occ=0.000000D+00  E= 3.120964D-01

 Vector  144  Occ=0.000000D+00  E= 3.168441D-01

 Vector  145  Occ=0.000000D+00  E= 3.189005D-01

 Vector  146  Occ=0.000000D+00  E= 3.212403D-01

 Vector  147  Occ=0.000000D+00  E= 3.285412D-01

 Vector  148  Occ=0.000000D+00  E= 3.309325D-01

 Vector  149  Occ=0.000000D+00  E= 3.337281D-01

 Vector  150  Occ=0.000000D+00  E= 3.395903D-01

 Vector  151  Occ=0.000000D+00  E= 3.417349D-01

 Vector  152  Occ=0.000000D+00  E= 3.438605D-01

 Vector  153  Occ=0.000000D+00  E= 3.493731D-01

 Vector  154  Occ=0.000000D+00  E= 3.543725D-01

 Vector  155  Occ=0.000000D+00  E= 3.555379D-01

 Vector  156  Occ=0.000000D+00  E= 3.631067D-01

 Vector  157  Occ=0.000000D+00  E= 3.661973D-01

 Vector  158  Occ=0.000000D+00  E= 3.681720D-01

 Vector  159  Occ=0.000000D+00  E= 3.726185D-01

 Vector  160  Occ=0.000000D+00  E= 3.794617D-01

 Vector  161  Occ=0.000000D+00  E= 3.809156D-01

 Vector  162  Occ=0.000000D+00  E= 3.836823D-01

 Vector  163  Occ=0.000000D+00  E= 3.867653D-01

 Vector  164  Occ=0.000000D+00  E= 3.907760D-01

 Vector  165  Occ=0.000000D+00  E= 3.940256D-01

 Vector  166  Occ=0.000000D+00  E= 3.999605D-01

 Vector  167  Occ=0.000000D+00  E= 4.007353D-01

 Vector  168  Occ=0.000000D+00  E= 4.067336D-01

 Vector  169  Occ=0.000000D+00  E= 4.085233D-01

 Vector  170  Occ=0.000000D+00  E= 4.100120D-01

 Vector  171  Occ=0.000000D+00  E= 4.136595D-01

 Vector  172  Occ=0.000000D+00  E= 4.199724D-01

 Vector  173  Occ=0.000000D+00  E= 4.249572D-01

 Vector  174  Occ=0.000000D+00  E= 4.275762D-01

 Vector  175  Occ=0.000000D+00  E= 4.314329D-01

 Vector  176  Occ=0.000000D+00  E= 4.328377D-01

 Vector  177  Occ=0.000000D+00  E= 4.383789D-01

 Vector  178  Occ=0.000000D+00  E= 4.394414D-01

 Vector  179  Occ=0.000000D+00  E= 4.479658D-01

 Vector  180  Occ=0.000000D+00  E= 4.545026D-01

 Vector  181  Occ=0.000000D+00  E= 4.581011D-01

 Vector  182  Occ=0.000000D+00  E= 4.595946D-01

 Vector  183  Occ=0.000000D+00  E= 4.664175D-01

 Vector  184  Occ=0.000000D+00  E= 4.725458D-01

 Vector  185  Occ=0.000000D+00  E= 4.755577D-01

 Vector  186  Occ=0.000000D+00  E= 4.793463D-01

 Vector  187  Occ=0.000000D+00  E= 4.841429D-01

 Vector  188  Occ=0.000000D+00  E= 4.869400D-01

 Vector  189  Occ=0.000000D+00  E= 4.910864D-01

 Vector  190  Occ=0.000000D+00  E= 4.919946D-01

 Vector  191  Occ=0.000000D+00  E= 4.975401D-01

 Vector  192  Occ=0.000000D+00  E= 5.014827D-01

       Multipole analysis of the density wrt the origin
       ------------------------------------------------

     L   x y z        total         open         nuclear
     -   - - -        -----         ----         -------
     0   0 0 0      0.000000      0.000000    146.000000

     1   1 0 0     -0.565543      0.000000     -0.000000
     1   0 1 0      1.222177      0.000000     -0.000000
     1   0 0 1      0.159462      0.000000      0.000000

     2   2 0 0    -78.958108      0.000000   1249.537459
     2   1 1 0      4.128073      0.000000     -4.298138
     2   1 0 1      3.909953      0.000000     -1.086772
     2   0 2 0   -105.236717      0.000000   2915.095912
     2   0 1 1     -7.272503      0.000000    -12.106571

 Total times  cpu:     4130.0s     wall:     4144.6s
