============================== echo of input deck ==============================
start ASN_MET_0
geometry
H          4.78700       10.93000        6.89200
C          5.01900       10.56000        5.89400
H          5.16300       11.40200        5.21900
H          4.20100        9.93700        5.53600
C          6.28400        9.74000        5.95200
O          6.86800        9.57600        7.01800
N          6.73300        9.24500        4.79900
H          6.21500        9.47800        3.96100
C          7.89600        8.35600        4.63000
H          7.81100        7.56200        5.37500
C          7.79800        7.70600        3.23800
H          8.59600        6.97400        3.11500
H          6.84800        7.18100        3.14600
C          7.88200        8.73400        2.12600
O          6.89300        9.32100        1.72700
N          9.06300        9.02600        1.63800
H          9.10200        9.70300        0.90000
H          9.88500        8.65300        2.09400
C          9.27800        9.01700        4.87800
O         10.27500        8.62800        4.27100
N          9.33000       10.03700        5.73400
H          8.45600       10.29100        6.17600
C         10.51400       10.82500        6.09400
H         11.38800       10.17700        6.01500
C         10.69600       11.98100        5.08900
H         11.69000       12.40400        5.24300
H         10.67200       11.58500        4.07400
C          9.68000       13.13200        5.21400
H          9.75200       13.55000        6.21800
H          9.98300       13.91900        4.52200
S          7.93000       12.75400        4.88800
C          7.99000       12.33100        3.12600
H          8.63600       11.46800        2.97400
H          6.98700       12.08900        2.77400
H          8.37500       13.17800        2.55700
C         10.47600       11.33300        7.55000
O         11.37600       12.04200        7.98100
N          9.45600       11.00200        8.33500
H          9.45300       11.35100        9.27900
H          8.70600       10.41900        7.99400
end

basis
 * library aug-cc-pvdz
end

echo

scf
 direct
end

task scf energy
================================================================================

 Output coordinates in angstroms (scale by  1.889725989 to convert to a.u.)

  No.       Tag          Charge          X              Y              Z
 ---- ---------------- ---------- -------------- -------------- --------------
    1 H                    1.0000    -4.15384988     0.05331933     0.75862776
    2 C                    6.0000    -3.42644872     0.86384816     0.78429026
    3 H                    1.0000    -2.91155920     0.85936907     1.74355754
    4 H                    1.0000    -3.93539269     1.81609034     0.64419072
    5 C                    6.0000    -2.42402684     0.66436087    -0.32536924
    6 O                    8.0000    -2.52165124    -0.29454860    -1.08383486
    7 N                    7.0000    -1.43418440     1.55282686    -0.40828562
    8 H                    1.0000    -1.40355990     2.28026686     0.29509919
    9 C                    6.0000    -0.39545679     1.60048899    -1.45242368
   10 H                    1.0000    -0.89764794     1.50253362    -2.41725258
   11 C                    6.0000     0.26191389     2.99165313    -1.40452684
   12 H                    1.0000     0.97471743     3.09187860    -2.22283177
   13 H                    1.0000    -0.49968540     3.76015846    -1.53084022
   14 C                    6.0000     0.97073734     3.23776320    -0.08642852
   15 O                    8.0000     0.37831865     3.67903000     0.88115336
   16 N                    7.0000     2.23505874     2.90566283     0.01036895
   17 H                    1.0000     2.69129483     3.07931787     0.88568978
   18 H                    1.0000     2.66312846     2.38954981    -0.74668630
   19 C                    6.0000     0.64700668     0.45188455    -1.40418710
   20 O                    8.0000     1.80113823     0.63860098    -1.78745767
   21 N                    7.0000     0.25499255    -0.71704478    -0.89845086
   22 H                    1.0000    -0.71027145    -0.77058067    -0.59986200
   23 C                    6.0000     1.07445015    -1.92194307    -0.72783625
   24 H                    1.0000     1.82948670    -1.93136927    -1.51514302
   25 C                    6.0000     1.81091484    -1.86390972     0.62631917
   26 H                    1.0000     2.57238418    -2.64547570     0.62608848
   27 H                    1.0000     2.33239914    -0.91101755     0.71388422
   28 C                    6.0000     0.92739095    -2.08050321     1.86936172
   29 H                    1.0000     0.45278589    -3.05851031     1.79077318
   30 H                    1.0000     1.58301404    -2.11694170     2.74049466
   31 S                   16.0000    -0.37196094    -0.85206774     2.20743116
   32 C                    6.0000     0.62661890     0.62054567     2.55588636
   33 H                    1.0000     1.22390691     0.87817061     1.68292277
   34 H                    1.0000    -0.02876504     1.45789757     2.79628328
   35 H                    1.0000     1.28565428     0.42644158     3.40287572
   36 C                    6.0000     0.26388044    -3.22512690    -0.88318318
   37 O                    8.0000     0.80432077    -4.31190517    -0.72418875
   38 N                    7.0000    -1.02886500    -3.16283323    -1.18503534
   39 H                    1.0000    -1.53567246    -4.02765911    -1.27541452
   40 H                    1.0000    -1.48890229    -2.27442524    -1.31832807

         Total SCF energy =  -1343.193955506655

 Vector  135  Occ=0.000000D+00  E= 2.155970D-01

 Vector  136  Occ=0.000000D+00  E= 2.166312D-01

 Vector  137  Occ=0.000000D+00  E= 2.192009D-01

 Vector  138  Occ=0.000000D+00  E= 2.244624D-01

 Vector  139  Occ=0.000000D+00  E= 2.254291D-01

 Vector  140  Occ=0.000000D+00  E= 2.275725D-01

 Vector  141  Occ=0.000000D+00  E= 2.335119D-01

 Vector  142  Occ=0.000000D+00  E= 2.351858D-01

 Vector  143  Occ=0.000000D+00  E= 2.375515D-01

 Vector  144  Occ=0.000000D+00  E= 2.413061D-01

 Vector  145  Occ=0.000000D+00  E= 2.454032D-01

 Vector  146  Occ=0.000000D+00  E= 2.501601D-01

 Vector  147  Occ=0.000000D+00  E= 2.517483D-01

 Vector  148  Occ=0.000000D+00  E= 2.558768D-01

 Vector  149  Occ=0.000000D+00  E= 2.653330D-01

 Vector  150  Occ=0.000000D+00  E= 2.664344D-01

 Vector  151  Occ=0.000000D+00  E= 2.706382D-01

 Vector  152  Occ=0.000000D+00  E= 2.748980D-01

 Vector  153  Occ=0.000000D+00  E= 2.817598D-01

 Vector  154  Occ=0.000000D+00  E= 2.833519D-01

 Vector  155  Occ=0.000000D+00  E= 2.889759D-01

 Vector  156  Occ=0.000000D+00  E= 2.955838D-01

 Vector  157  Occ=0.000000D+00  E= 2.990919D-01

 Vector  158  Occ=0.000000D+00  E= 3.052804D-01

 Vector  159  Occ=0.000000D+00  E= 3.085701D-01

 Vector  160  Occ=0.000000D+00  E= 3.100537D-01

 Vector  161  Occ=0.000000D+00  E= 3.180330D-01

 Vector  162  Occ=0.000000D+00  E= 3.205464D-01

 Vector  163  Occ=0.000000D+00  E= 3.236786D-01

 Vector  164  Occ=0.000000D+00  E= 3.291605D-01

 Vector  165  Occ=0.000000D+00  E= 3.308915D-01

 Vector  166  Occ=0.000000D+00  E= 3.352581D-01

 Vector  167  Occ=0.000000D+00  E= 3.389831D-01

 Vector  168  Occ=0.000000D+00  E= 3.467711D-01

 Vector  169  Occ=0.000000D+00  E= 3.484397D-01

 Vector  170  Occ=0.000000D+00  E= 3.516079D-01

 Vector  171  Occ=0.000000D+00  E= 3.529024D-01

 Vector  172  Occ=0.000000D+00  E= 3.593513D-01

 Vector  173  Occ=0.000000D+00  E= 3.614041D-01

 Vector  174  Occ=0.000000D+00  E= 3.630354D-01

 Vector  175  Occ=0.000000D+00  E= 3.649168D-01

 Vector  176  Occ=0.000000D+00  E= 3.708018D-01

 Vector  177  Occ=0.000000D+00  E= 3.737910D-01

 Vector  178  Occ=0.000000D+00  E= 3.818535D-01

 Vector  179  Occ=0.000000D+00  E= 3.831228D-01

 Vector  180  Occ=0.000000D+00  E= 3.840912D-01

 Vector  181  Occ=0.000000D+00  E= 3.877141D-01

 Vector  182  Occ=0.000000D+00  E= 3.892407D-01

 Vector  183  Occ=0.000000D+00  E= 3.951583D-01

 Vector  184  Occ=0.000000D+00  E= 3.966918D-01

 Vector  185  Occ=0.000000D+00  E= 3.976693D-01

 Vector  186  Occ=0.000000D+00  E= 4.043947D-01

 Vector  187  Occ=0.000000D+00  E= 4.057832D-01

 Vector  188  Occ=0.000000D+00  E= 4.068793D-01

 Vector  189  Occ=0.000000D+00  E= 4.105296D-01

 Vector  190  Occ=0.000000D+00  E= 4.135826D-01

 Vector  191  Occ=0.000000D+00  E= 4.150313D-01

 Vector  192  Occ=0.000000D+00  E= 4.215328D-01

 Vector  193  Occ=0.000000D+00  E= 4.252508D-01

 Vector  194  Occ=0.000000D+00  E= 4.287255D-01

 Vector  195  Occ=0.000000D+00  E= 4.301364D-01

 Vector  196  Occ=0.000000D+00  E= 4.324202D-01

 Vector  197  Occ=0.000000D+00  E= 4.408958D-01

 Vector  198  Occ=0.000000D+00  E= 4.428610D-01

 Vector  199  Occ=0.000000D+00  E= 4.442814D-01

 Vector  200  Occ=0.000000D+00  E= 4.485058D-01

 Vector  201  Occ=0.000000D+00  E= 4.515758D-01

 Vector  202  Occ=0.000000D+00  E= 4.547241D-01

 Vector  203  Occ=0.000000D+00  E= 4.598045D-01

 Vector  204  Occ=0.000000D+00  E= 4.658336D-01

 Vector  205  Occ=0.000000D+00  E= 4.693606D-01

 Vector  206  Occ=0.000000D+00  E= 4.711195D-01

 Vector  207  Occ=0.000000D+00  E= 4.764417D-01

 Vector  208  Occ=0.000000D+00  E= 4.785406D-01

 Vector  209  Occ=0.000000D+00  E= 4.826027D-01

 Vector  210  Occ=0.000000D+00  E= 4.874931D-01

 Vector  211  Occ=0.000000D+00  E= 4.883861D-01

 Vector  212  Occ=0.000000D+00  E= 4.962613D-01

 Vector  213  Occ=0.000000D+00  E= 4.996255D-01

 Vector  214  Occ=0.000000D+00  E= 5.049577D-01

       Multipole analysis of the density wrt the origin
       ------------------------------------------------

     L   x y z        total         open         nuclear
     -   - - -        -----         ----         -------
     0   0 0 0      0.000000      0.000000    162.000000

     1   1 0 0     -0.371867      0.000000      0.000000
     1   0 1 0      1.551717      0.000000     -0.000000
     1   0 0 1      0.185352      0.000000      0.000000

     2   2 0 0    -89.069119      0.000000   1350.634473
     2   1 1 0      4.432671      0.000000     -7.347972
     2   1 0 1      4.844237      0.000000     11.177986
     2   0 2 0   -110.333686      0.000000   2846.367946
     2   0 1 1     -6.281962      0.000000    -12.306473

 Total times  cpu:     6987.5s     wall:     7008.0s
