============================== echo of input deck ==============================
start ASN_GLN_0
geometry
H          7.21800        9.13100       -2.49000
C          7.08700        9.63000       -1.53100
H          6.28100        9.14400       -0.98300
H          6.84700       10.67900       -1.68900
C          8.36700        9.51900       -0.73800
O          9.36000        8.99700       -1.23200
N          8.35000       10.01700        0.49800
H          7.47700       10.39000        0.84700
C          9.53300       10.14000        1.36100
H         10.37200       10.43600        0.72800
C          9.28300       11.27500        2.36800
H         10.19500       11.47700        2.92900
H          9.00900       12.18600        1.83500
C          8.16700       10.93000        3.33400
O          7.00300       11.16100        3.06700
N          8.48000       10.32300        4.45300
H          7.72000       10.09200        5.06600
H          9.43500       10.05100        4.62600
C          9.97800        8.83800        2.07000
O         10.85100        8.89100        2.93800
N          9.38700        7.68200        1.75300
H          8.66700        7.71000        1.04100
C          9.80800        6.36000        2.25200
H         10.05200        6.48000        3.30800
C          8.62700        5.35500        2.20200
H          8.89600        4.48900        2.80900
H          7.77400        5.82800        2.69000
C          8.15100        4.82900        0.83100
H          8.81800        4.04200        0.48200
H          7.16200        4.38400        0.94600
C          8.07200        5.92700       -0.21500
O          7.17500        6.75200       -0.20300
N          9.07300        6.07100       -1.05200
H          9.10100        6.93600       -1.57800
H          9.88500        5.48000       -0.95000
C         11.11100        5.88000        1.56900
O         11.13900        4.93400        0.78900
N         12.21900        6.56500        1.81200
H         13.07200        6.28300        1.35800
H         12.17600        7.38100        2.40800
end

basis
 * library aug-cc-pvdz
end

echo

scf
 direct
end

task scf energy
================================================================================

 Output coordinates in angstroms (scale by  1.889725989 to convert to a.u.)

  No.       Tag          Charge          X              Y              Z
 ---- ---------------- ---------- -------------- -------------- --------------
    1 H                    1.0000    -4.22920934    -0.22261934     0.80375005
    2 C                    6.0000    -3.59571864    -1.01538559     0.40871310
    3 H                    1.0000    -3.56161590    -0.93728586    -0.67704628
    4 H                    1.0000    -3.99316764    -1.98572864     0.69756197
    5 C                    6.0000    -2.20095131    -0.85558647     0.96428338
    6 O                    8.0000    -1.95718000     0.01915143     1.78767767
    7 N                    7.0000    -1.27825384    -1.70755245     0.51844444
    8 H                    1.0000    -1.55048755    -2.37077221    -0.19505914
    9 C                    6.0000     0.08734093    -1.80798356     1.05178441
   10 H                    1.0000     0.02770847    -1.67691676     2.13413900
   11 C                    6.0000     0.61097267    -3.22814965     0.78028473
   12 H                    1.0000     1.56640321    -3.37091160     1.28430904
   13 H                    1.0000    -0.09077620    -3.96146634     1.17888373
   14 C                    6.0000     0.78401489    -3.48642009    -0.70328858
   15 O                    8.0000    -0.13509751    -3.89471251    -1.38744917
   16 N                    7.0000     1.94204781    -3.20796552    -1.25101278
   17 H                    1.0000     2.02330111    -3.37328254    -2.23731810
   18 H                    1.0000     2.66936327    -2.78274443    -0.69771606
   19 C                    6.0000     1.07879751    -0.73035594     0.55014454
   20 O                    8.0000     2.27729438    -0.84293340     0.81338127
   21 N                    7.0000     0.62516166     0.28792784    -0.18702480
   22 H                    1.0000    -0.36912738     0.31375643    -0.37898885
   23 C                    6.0000     1.43617738     1.44454121    -0.60942865
   24 H                    1.0000     2.41265881     1.05928019    -0.90460648
   25 C                    6.0000     0.83624308     2.09749408    -1.88262046
   26 H                    1.0000     1.58902707     2.76491117    -2.30527480
   27 H                    1.0000     0.67499341     1.30338480    -2.61260060
   28 C                    6.0000    -0.47765369     2.89891581    -1.76307339
   29 H                    1.0000    -0.27322941     3.89226883    -1.36618616
   30 H                    1.0000    -0.90334227     3.03221578    -2.75825747
   31 C                    6.0000    -1.50249712     2.20334703    -0.88452855
   32 O                    8.0000    -2.11634442     1.22624155    -1.27674579
   33 N                    7.0000    -1.61333318     2.57747951     0.36888529
   34 H                    1.0000    -2.12847787     1.95700936     0.98152527
   35 H                    1.0000    -0.98628342     3.28333184     0.72611084
   36 C                    6.0000     1.70245569     2.41531670     0.56589633
   37 O                    8.0000     1.20910401     3.53672064     0.62208623
   38 N                    7.0000     2.45533892     1.97729247     1.56451520
   39 H                    1.0000     2.62009416     2.58541112     2.34956069
   40 H                    1.0000     2.80813775     1.02974248     1.53995911

         Total SCF energy =  -1074.451798318352

 Vector  132  Occ=0.000000D+00  E= 2.106700D-01

 Vector  133  Occ=0.000000D+00  E= 2.145353D-01

 Vector  134  Occ=0.000000D+00  E= 2.160959D-01

 Vector  135  Occ=0.000000D+00  E= 2.197876D-01

 Vector  136  Occ=0.000000D+00  E= 2.256812D-01

 Vector  137  Occ=0.000000D+00  E= 2.273665D-01

 Vector  138  Occ=0.000000D+00  E= 2.322541D-01

 Vector  139  Occ=0.000000D+00  E= 2.338878D-01

 Vector  140  Occ=0.000000D+00  E= 2.379221D-01

 Vector  141  Occ=0.000000D+00  E= 2.407722D-01

 Vector  142  Occ=0.000000D+00  E= 2.472447D-01

 Vector  143  Occ=0.000000D+00  E= 2.502708D-01

 Vector  144  Occ=0.000000D+00  E= 2.574442D-01

 Vector  145  Occ=0.000000D+00  E= 2.620029D-01

 Vector  146  Occ=0.000000D+00  E= 2.646728D-01

 Vector  147  Occ=0.000000D+00  E= 2.680194D-01

 Vector  148  Occ=0.000000D+00  E= 2.758090D-01

 Vector  149  Occ=0.000000D+00  E= 2.832390D-01

 Vector  150  Occ=0.000000D+00  E= 2.851163D-01

 Vector  151  Occ=0.000000D+00  E= 2.900058D-01

 Vector  152  Occ=0.000000D+00  E= 2.955869D-01

 Vector  153  Occ=0.000000D+00  E= 2.997989D-01

 Vector  154  Occ=0.000000D+00  E= 3.024036D-01

 Vector  155  Occ=0.000000D+00  E= 3.057338D-01

 Vector  156  Occ=0.000000D+00  E= 3.070442D-01

 Vector  157  Occ=0.000000D+00  E= 3.127287D-01

 Vector  158  Occ=0.000000D+00  E= 3.169131D-01

 Vector  159  Occ=0.000000D+00  E= 3.231557D-01

 Vector  160  Occ=0.000000D+00  E= 3.250205D-01

 Vector  161  Occ=0.000000D+00  E= 3.322378D-01

 Vector  162  Occ=0.000000D+00  E= 3.327388D-01

 Vector  163  Occ=0.000000D+00  E= 3.361014D-01

 Vector  164  Occ=0.000000D+00  E= 3.378888D-01

 Vector  165  Occ=0.000000D+00  E= 3.425665D-01

 Vector  166  Occ=0.000000D+00  E= 3.454565D-01

 Vector  167  Occ=0.000000D+00  E= 3.464707D-01

 Vector  168  Occ=0.000000D+00  E= 3.520133D-01

 Vector  169  Occ=0.000000D+00  E= 3.566866D-01

 Vector  170  Occ=0.000000D+00  E= 3.608805D-01

 Vector  171  Occ=0.000000D+00  E= 3.643859D-01

 Vector  172  Occ=0.000000D+00  E= 3.648484D-01

 Vector  173  Occ=0.000000D+00  E= 3.685459D-01

 Vector  174  Occ=0.000000D+00  E= 3.736030D-01

 Vector  175  Occ=0.000000D+00  E= 3.777523D-01

 Vector  176  Occ=0.000000D+00  E= 3.800619D-01

 Vector  177  Occ=0.000000D+00  E= 3.838395D-01

 Vector  178  Occ=0.000000D+00  E= 3.869368D-01

 Vector  179  Occ=0.000000D+00  E= 3.904609D-01

 Vector  180  Occ=0.000000D+00  E= 3.934019D-01

 Vector  181  Occ=0.000000D+00  E= 3.943176D-01

 Vector  182  Occ=0.000000D+00  E= 3.958499D-01

 Vector  183  Occ=0.000000D+00  E= 4.012922D-01

 Vector  184  Occ=0.000000D+00  E= 4.061706D-01

 Vector  185  Occ=0.000000D+00  E= 4.109164D-01

 Vector  186  Occ=0.000000D+00  E= 4.133779D-01

 Vector  187  Occ=0.000000D+00  E= 4.156115D-01

 Vector  188  Occ=0.000000D+00  E= 4.170402D-01

 Vector  189  Occ=0.000000D+00  E= 4.220092D-01

 Vector  190  Occ=0.000000D+00  E= 4.234275D-01

 Vector  191  Occ=0.000000D+00  E= 4.299956D-01

 Vector  192  Occ=0.000000D+00  E= 4.331208D-01

 Vector  193  Occ=0.000000D+00  E= 4.353025D-01

 Vector  194  Occ=0.000000D+00  E= 4.398173D-01

 Vector  195  Occ=0.000000D+00  E= 4.442007D-01

 Vector  196  Occ=0.000000D+00  E= 4.500997D-01

 Vector  197  Occ=0.000000D+00  E= 4.530701D-01

 Vector  198  Occ=0.000000D+00  E= 4.548484D-01

 Vector  199  Occ=0.000000D+00  E= 4.581619D-01

 Vector  200  Occ=0.000000D+00  E= 4.605083D-01

 Vector  201  Occ=0.000000D+00  E= 4.635109D-01

 Vector  202  Occ=0.000000D+00  E= 4.659315D-01

 Vector  203  Occ=0.000000D+00  E= 4.737163D-01

 Vector  204  Occ=0.000000D+00  E= 4.751999D-01

 Vector  205  Occ=0.000000D+00  E= 4.830775D-01

 Vector  206  Occ=0.000000D+00  E= 4.863133D-01

 Vector  207  Occ=0.000000D+00  E= 4.891650D-01

 Vector  208  Occ=0.000000D+00  E= 4.924383D-01

 Vector  209  Occ=0.000000D+00  E= 4.970477D-01

 Vector  210  Occ=0.000000D+00  E= 4.989781D-01

 Vector  211  Occ=0.000000D+00  E= 5.024456D-01

       Multipole analysis of the density wrt the origin
       ------------------------------------------------

     L   x y z        total         open         nuclear
     -   - - -        -----         ----         -------
     0   0 0 0     -0.000000      0.000000    160.000000

     1   1 0 0      1.404872      0.000000     -0.000000
     1   0 1 0     -0.495846      0.000000      0.000000
     1   0 0 1      0.152261      0.000000      0.000000

     2   2 0 0    -89.253050      0.000000   1721.101592
     2   1 1 0     -1.559308      0.000000      5.040290
     2   1 0 1     -3.911149      0.000000     -8.506281
     2   0 2 0    -98.680204      0.000000   3017.897466
     2   0 1 1     -6.979692      0.000000    -28.570813

 Total times  cpu:     6436.2s     wall:     6456.0s
