============================== echo of input deck ==============================
start ASN_CYS_2
geometry
H          5.11400        2.28300        1.56800
C          4.44200        2.18100        0.71800
H          3.50800        1.72500        1.04100
H          4.90700        1.55800       -0.04500
C          4.15700        3.54400        0.13500
O          4.45800        3.79400       -1.02500
N          3.59000        4.43300        0.94800
H          3.38200        4.13400        1.89200
C          3.18000        5.79900        0.58400
H          2.66500        5.74700       -0.37700
C          2.15900        6.28500        1.63300
H          1.87200        7.31600        1.42500
H          1.26200        5.67100        1.56600
C          2.68700        6.18200        3.05300
O          2.51600        5.17900        3.72100
N          3.39200        7.17600        3.53000
H          3.67500        7.91300        2.89600
H          3.75400        7.07800        4.46000
C          4.35900        6.78500        0.37100
O          4.40000        7.86800        0.96100
N          5.34100        6.40800       -0.44900
H          5.23300        5.51800       -0.92400
C          6.47100        7.25700       -0.82100
H          6.92700        7.64700        0.09100
C          7.50600        6.38400       -1.54300
H          7.79800        5.55800       -0.89300
H          7.06900        5.97400       -2.45700
S          8.98100        7.35800       -1.96000
H          8.45900        8.00500       -3.01000
C          6.01900        8.45600       -1.67800
O          5.26900        8.30600       -2.63600
N          6.49600        9.65800       -1.38100
H          7.11800        9.77800       -0.59900
H          6.19600       10.43800       -1.94200
end

basis
 * library aug-cc-pvdz
end

echo

scf
 direct
end

task scf energy
================================================================================

 Output coordinates in angstroms (scale by  1.889725989 to convert to a.u.)

  No.       Tag          Charge          X              Y              Z
 ---- ---------------- ---------- -------------- -------------- --------------
    1 H                    1.0000    -3.20089646     2.50145989     1.46567048
    2 C                    6.0000    -3.42722034     2.47817121     0.40137581
    3 H                    1.0000    -3.50721691     3.49467913     0.02067486
    4 H                    1.0000    -4.36704714     1.95251526     0.23725874
    5 C                    6.0000    -2.32359740     1.75538082    -0.33243168
    6 O                    8.0000    -2.56911906     0.73980757    -0.97042157
    7 N                    7.0000    -1.10076176     2.27151280    -0.22726619
    8 H                    1.0000    -0.99648782     3.11217319     0.32610354
    9 C                    6.0000     0.11100732     1.76598979    -0.89255875
   10 H                    1.0000    -0.14565420     1.54808723    -1.93087149
   11 C                    6.0000     1.15764051     2.89892328    -0.90021885
   12 H                    1.0000     2.08994675     2.54299384    -1.33921009
   13 H                    1.0000     0.79066371     3.71671331    -1.51879907
   14 C                    6.0000     1.42910517     3.45230125     0.48753933
   15 O                    8.0000     0.79017290     4.38792541     0.93233925
   16 N                    7.0000     2.32838134     2.85926729     1.23064303
   17 H                    1.0000     2.71094824     1.97776939     0.91155366
   18 H                    1.0000     2.47459232     3.22326038     2.15350779
   19 C                    6.0000     0.65178557     0.43358070    -0.30959143
   20 O                    8.0000     1.82894511     0.32239739     0.04340103
   21 N                    7.0000    -0.20749855    -0.57763778    -0.17572207
   22 H                    1.0000    -1.15378504    -0.42996549    -0.51057094
   23 C                    6.0000     0.16564763    -1.91792961     0.27201082
   24 H                    1.0000     0.72623195    -1.82871967     1.20451648
   25 C                    6.0000    -1.12262041    -2.70161998     0.55632205
   26 H                    1.0000    -1.71731374    -2.16286935     1.29532652
   27 H                    1.0000    -1.70657277    -2.79670423    -0.36260321
   28 S                   16.0000    -0.73367820    -4.35412868     1.20140263
   29 H                    1.0000    -0.38492826    -4.90844878     0.03320072
   30 C                    6.0000     1.06548273    -2.62801531    -0.75873119
   31 O                    8.0000     0.77683837    -2.64488533    -1.95001782
   32 N                    7.0000     2.14564194    -3.26218249    -0.32097546
   33 H                    1.0000     2.37671088    -3.25403165     0.65848802
   34 H                    1.0000     2.73123575    -3.72222550    -0.99814701

         Total SCF energy =  -1265.127746066091

 Vector  112  Occ=0.000000D+00  E= 1.803653D-01

 Vector  113  Occ=0.000000D+00  E= 1.811267D-01

 Vector  114  Occ=0.000000D+00  E= 1.860732D-01

 Vector  115  Occ=0.000000D+00  E= 1.892113D-01

 Vector  116  Occ=0.000000D+00  E= 1.916290D-01

 Vector  117  Occ=0.000000D+00  E= 1.939504D-01

 Vector  118  Occ=0.000000D+00  E= 1.989247D-01

 Vector  119  Occ=0.000000D+00  E= 2.027035D-01

 Vector  120  Occ=0.000000D+00  E= 2.037891D-01

 Vector  121  Occ=0.000000D+00  E= 2.106754D-01

 Vector  122  Occ=0.000000D+00  E= 2.143437D-01

 Vector  123  Occ=0.000000D+00  E= 2.163360D-01

 Vector  124  Occ=0.000000D+00  E= 2.238801D-01

 Vector  125  Occ=0.000000D+00  E= 2.254864D-01

 Vector  126  Occ=0.000000D+00  E= 2.278536D-01

 Vector  127  Occ=0.000000D+00  E= 2.331943D-01

 Vector  128  Occ=0.000000D+00  E= 2.375563D-01

 Vector  129  Occ=0.000000D+00  E= 2.429521D-01

 Vector  130  Occ=0.000000D+00  E= 2.479434D-01

 Vector  131  Occ=0.000000D+00  E= 2.534077D-01

 Vector  132  Occ=0.000000D+00  E= 2.558367D-01

 Vector  133  Occ=0.000000D+00  E= 2.568381D-01

 Vector  134  Occ=0.000000D+00  E= 2.639330D-01

 Vector  135  Occ=0.000000D+00  E= 2.687872D-01

 Vector  136  Occ=0.000000D+00  E= 2.756827D-01

 Vector  137  Occ=0.000000D+00  E= 2.811415D-01

 Vector  138  Occ=0.000000D+00  E= 2.837517D-01

 Vector  139  Occ=0.000000D+00  E= 2.918000D-01

 Vector  140  Occ=0.000000D+00  E= 2.984866D-01

 Vector  141  Occ=0.000000D+00  E= 3.048631D-01

 Vector  142  Occ=0.000000D+00  E= 3.073627D-01

 Vector  143  Occ=0.000000D+00  E= 3.096055D-01

 Vector  144  Occ=0.000000D+00  E= 3.160386D-01

 Vector  145  Occ=0.000000D+00  E= 3.201786D-01

 Vector  146  Occ=0.000000D+00  E= 3.257251D-01

 Vector  147  Occ=0.000000D+00  E= 3.290529D-01

 Vector  148  Occ=0.000000D+00  E= 3.324452D-01

 Vector  149  Occ=0.000000D+00  E= 3.381057D-01

 Vector  150  Occ=0.000000D+00  E= 3.415077D-01

 Vector  151  Occ=0.000000D+00  E= 3.452466D-01

 Vector  152  Occ=0.000000D+00  E= 3.464569D-01

 Vector  153  Occ=0.000000D+00  E= 3.510219D-01

 Vector  154  Occ=0.000000D+00  E= 3.538931D-01

 Vector  155  Occ=0.000000D+00  E= 3.593245D-01

 Vector  156  Occ=0.000000D+00  E= 3.608874D-01

 Vector  157  Occ=0.000000D+00  E= 3.645972D-01

 Vector  158  Occ=0.000000D+00  E= 3.692101D-01

 Vector  159  Occ=0.000000D+00  E= 3.713265D-01

 Vector  160  Occ=0.000000D+00  E= 3.740726D-01

 Vector  161  Occ=0.000000D+00  E= 3.790690D-01

 Vector  162  Occ=0.000000D+00  E= 3.860676D-01

 Vector  163  Occ=0.000000D+00  E= 3.912250D-01

 Vector  164  Occ=0.000000D+00  E= 3.935114D-01

 Vector  165  Occ=0.000000D+00  E= 3.957316D-01

 Vector  166  Occ=0.000000D+00  E= 4.021719D-01

 Vector  167  Occ=0.000000D+00  E= 4.047526D-01

 Vector  168  Occ=0.000000D+00  E= 4.091690D-01

 Vector  169  Occ=0.000000D+00  E= 4.128008D-01

 Vector  170  Occ=0.000000D+00  E= 4.147987D-01

 Vector  171  Occ=0.000000D+00  E= 4.170346D-01

 Vector  172  Occ=0.000000D+00  E= 4.196176D-01

 Vector  173  Occ=0.000000D+00  E= 4.237218D-01

 Vector  174  Occ=0.000000D+00  E= 4.301183D-01

 Vector  175  Occ=0.000000D+00  E= 4.338321D-01

 Vector  176  Occ=0.000000D+00  E= 4.359083D-01

 Vector  177  Occ=0.000000D+00  E= 4.403088D-01

 Vector  178  Occ=0.000000D+00  E= 4.420155D-01

 Vector  179  Occ=0.000000D+00  E= 4.453420D-01

 Vector  180  Occ=0.000000D+00  E= 4.554721D-01

 Vector  181  Occ=0.000000D+00  E= 4.606195D-01

 Vector  182  Occ=0.000000D+00  E= 4.651446D-01

 Vector  183  Occ=0.000000D+00  E= 4.675138D-01

 Vector  184  Occ=0.000000D+00  E= 4.723802D-01

 Vector  185  Occ=0.000000D+00  E= 4.768784D-01

 Vector  186  Occ=0.000000D+00  E= 4.806945D-01

 Vector  187  Occ=0.000000D+00  E= 4.882565D-01

 Vector  188  Occ=0.000000D+00  E= 4.902415D-01

 Vector  189  Occ=0.000000D+00  E= 4.953556D-01

 Vector  190  Occ=0.000000D+00  E= 4.985876D-01

 Vector  191  Occ=0.000000D+00  E= 5.002617D-01

       Multipole analysis of the density wrt the origin
       ------------------------------------------------

     L   x y z        total         open         nuclear
     -   - - -        -----         ----         -------
     0   0 0 0     -0.000000      0.000000    146.000000

     1   1 0 0      0.421767      0.000000      0.000000
     1   0 1 0     -0.026574      0.000000     -0.000000
     1   0 0 1      1.005110      0.000000      0.000000

     2   2 0 0    -78.922239      0.000000   1426.130243
     2   1 1 0     -9.019286      0.000000    -33.376440
     2   1 0 1     -1.011262      0.000000     -6.027048
     2   0 2 0    -92.185638      0.000000   4023.293510
     2   0 1 1     -6.344948      0.000000     -0.933773

 Total times  cpu:     4211.4s     wall:     4225.8s
