============================== echo of input deck ==============================
start ASN_MET_5
geometry
H          7.17700       17.85400       -4.61700
C          6.84900       18.47300       -5.45000
H          6.90600       19.52400       -5.17500
H          5.82200       18.21800       -5.71100
C          7.73800       18.21800       -6.64400
O          7.26300       17.79700       -7.69200
N          9.03400       18.48000       -6.49400
H          9.37000       18.81000       -5.60000
C         10.04400       18.22000       -7.52200
H          9.80200       17.26700       -7.99800
C          9.98400       19.33900       -8.58000
H          8.95700       19.68000       -8.71300
H         10.58200       20.19200       -8.25900
C         10.49300       18.84400       -9.91600
O         11.68500       18.76300      -10.15500
N          9.61400       18.43100      -10.79600
H          8.63300       18.43700      -10.57000
H          9.96900       18.09800      -11.67500
C         11.45000       18.09600       -6.90200
O         11.66900       18.53500       -5.77600
N         12.40200       17.52600       -7.64800
H         12.16600       17.26300       -8.59500
C         13.82200       17.47600       -7.27000
H         13.88600       17.29700       -6.19700
C         14.46900       16.28700       -8.00100
H         13.88100       15.38800       -7.80700
H         14.43400       16.48300       -9.07400
C         15.92700       15.98800       -7.62100
H         16.29700       15.25600       -8.33900
H         16.53900       16.88200       -7.73600
S         16.18800       15.27800       -5.96900
C         16.50600       16.76500       -4.97900
H         17.31100       17.34500       -5.43300
H         15.61100       17.38200       -4.92000
H         16.79900       16.47200       -3.97100
C         14.56000       18.79800       -7.56800
O         15.56500       19.11300       -6.94400
N         14.08700       19.60200       -8.51400
H         13.27300       19.33500       -9.05100
H         14.57300       20.46400       -8.69000
end

basis
 * library aug-cc-pvdz
end

echo

scf
 direct
end

task scf energy
================================================================================

 Output coordinates in angstroms (scale by  1.889725989 to convert to a.u.)

  No.       Tag          Charge          X              Y              Z
 ---- ---------------- ---------- -------------- -------------- --------------
    1 H                    1.0000    -3.72161745     4.40274449     0.15275587
    2 C                    6.0000    -2.82924254     4.99007716     0.36094176
    3 H                    1.0000    -2.73074703     5.14621949     1.43303933
    4 H                    1.0000    -2.90100618     5.95314300    -0.14426035
    5 C                    6.0000    -1.61431140     4.25435122    -0.15250899
    6 O                    8.0000    -0.89220474     4.76556059    -1.00009200
    7 N                    7.0000    -1.37803215     3.05147449     0.36519719
    8 H                    1.0000    -2.01889242     2.67478844     1.04962230
    9 C                    6.0000    -0.29034910     2.17369559    -0.07176253
   10 H                    1.0000    -0.21374248     2.24851395    -1.15890679
   11 C                    6.0000     1.03006150     2.65733895     0.55889581
   12 H                    1.0000     1.03263104     3.74412967     0.64594934
   13 H                    1.0000     1.14341652     2.24017422     1.55958469
   14 C                    6.0000     2.21328781     2.24983314    -0.29134916
   15 O                    8.0000     2.67359335     1.12258862    -0.24680045
   16 N                    7.0000     2.69309151     3.12544811    -1.14028782
   17 H                    1.0000     2.26775913     4.03424344    -1.22187470
   18 H                    1.0000     3.47371411     2.83628795    -1.70293314
   19 C                    6.0000    -0.58619925     0.70263713     0.28189223
   20 O                    8.0000    -1.43150236     0.42968434     1.13013596
   21 N                    7.0000     0.12921012    -0.23588386    -0.34666787
   22 H                    1.0000     0.86277771     0.06883770    -0.97172576
   23 C                    6.0000     0.08294354    -1.66651766    -0.01061678
   24 H                    1.0000    -0.94743412    -1.93096796     0.22571755
   25 C                    6.0000     0.51686182    -2.46302793    -1.25318562
   26 H                    1.0000    -0.08280612    -2.14334956    -2.10746022
   27 H                    1.0000     1.55920333    -2.22232382    -1.46895335
   28 C                    6.0000     0.39700752    -3.99008670    -1.13789702
   29 H                    1.0000     0.90430133    -4.41328724    -2.00496235
   30 H                    1.0000     0.92776274    -4.34577854    -0.25540780
   31 S                   16.0000    -1.29303748    -4.65719777    -1.14387303
   32 C                    6.0000    -1.65335963    -4.75367226     0.63186727
   33 H                    1.0000    -0.86880739    -5.31916243     1.13707975
   34 H                    1.0000    -1.70893587    -3.75602666     1.06408194
   35 H                    1.0000    -2.60947506    -5.25542419     0.77968571
   36 C                    6.0000     0.94814178    -2.01319935     1.21917011
   37 O                    8.0000     0.70041506    -2.99496303     1.90720902
   38 N                    7.0000     1.97165453    -1.22556427     1.53080071
   39 H                    1.0000     2.19753601    -0.42851281     0.95119695
   40 H                    1.0000     2.52003097    -1.45894594     2.34014135

         Total SCF energy =  -1343.200786890103

 Vector  137  Occ=0.000000D+00  E= 2.197410D-01

 Vector  138  Occ=0.000000D+00  E= 2.198566D-01

 Vector  139  Occ=0.000000D+00  E= 2.233484D-01

 Vector  140  Occ=0.000000D+00  E= 2.268011D-01

 Vector  141  Occ=0.000000D+00  E= 2.278265D-01

 Vector  142  Occ=0.000000D+00  E= 2.309026D-01

 Vector  143  Occ=0.000000D+00  E= 2.355259D-01

 Vector  144  Occ=0.000000D+00  E= 2.367458D-01

 Vector  145  Occ=0.000000D+00  E= 2.447449D-01

 Vector  146  Occ=0.000000D+00  E= 2.483961D-01

 Vector  147  Occ=0.000000D+00  E= 2.502455D-01

 Vector  148  Occ=0.000000D+00  E= 2.524943D-01

 Vector  149  Occ=0.000000D+00  E= 2.607379D-01

 Vector  150  Occ=0.000000D+00  E= 2.628128D-01

 Vector  151  Occ=0.000000D+00  E= 2.656139D-01

 Vector  152  Occ=0.000000D+00  E= 2.761272D-01

 Vector  153  Occ=0.000000D+00  E= 2.801973D-01

 Vector  154  Occ=0.000000D+00  E= 2.829905D-01

 Vector  155  Occ=0.000000D+00  E= 2.863091D-01

 Vector  156  Occ=0.000000D+00  E= 2.919654D-01

 Vector  157  Occ=0.000000D+00  E= 3.036041D-01

 Vector  158  Occ=0.000000D+00  E= 3.047641D-01

 Vector  159  Occ=0.000000D+00  E= 3.064964D-01

 Vector  160  Occ=0.000000D+00  E= 3.088857D-01

 Vector  161  Occ=0.000000D+00  E= 3.141941D-01

 Vector  162  Occ=0.000000D+00  E= 3.171092D-01

 Vector  163  Occ=0.000000D+00  E= 3.209385D-01

 Vector  164  Occ=0.000000D+00  E= 3.254531D-01

 Vector  165  Occ=0.000000D+00  E= 3.267295D-01

 Vector  166  Occ=0.000000D+00  E= 3.330465D-01

 Vector  167  Occ=0.000000D+00  E= 3.359743D-01

 Vector  168  Occ=0.000000D+00  E= 3.387800D-01

 Vector  169  Occ=0.000000D+00  E= 3.445781D-01

 Vector  170  Occ=0.000000D+00  E= 3.469338D-01

 Vector  171  Occ=0.000000D+00  E= 3.499974D-01

 Vector  172  Occ=0.000000D+00  E= 3.525697D-01

 Vector  173  Occ=0.000000D+00  E= 3.568802D-01

 Vector  174  Occ=0.000000D+00  E= 3.643601D-01

 Vector  175  Occ=0.000000D+00  E= 3.668022D-01

 Vector  176  Occ=0.000000D+00  E= 3.691599D-01

 Vector  177  Occ=0.000000D+00  E= 3.709316D-01

 Vector  178  Occ=0.000000D+00  E= 3.786952D-01

 Vector  179  Occ=0.000000D+00  E= 3.799526D-01

 Vector  180  Occ=0.000000D+00  E= 3.820795D-01

 Vector  181  Occ=0.000000D+00  E= 3.852112D-01

 Vector  182  Occ=0.000000D+00  E= 3.909145D-01

 Vector  183  Occ=0.000000D+00  E= 3.928599D-01

 Vector  184  Occ=0.000000D+00  E= 3.968979D-01

 Vector  185  Occ=0.000000D+00  E= 3.985473D-01

 Vector  186  Occ=0.000000D+00  E= 4.029167D-01

 Vector  187  Occ=0.000000D+00  E= 4.046642D-01

 Vector  188  Occ=0.000000D+00  E= 4.057778D-01

 Vector  189  Occ=0.000000D+00  E= 4.071593D-01

 Vector  190  Occ=0.000000D+00  E= 4.115058D-01

 Vector  191  Occ=0.000000D+00  E= 4.138875D-01

 Vector  192  Occ=0.000000D+00  E= 4.189141D-01

 Vector  193  Occ=0.000000D+00  E= 4.229917D-01

 Vector  194  Occ=0.000000D+00  E= 4.241152D-01

 Vector  195  Occ=0.000000D+00  E= 4.309133D-01

 Vector  196  Occ=0.000000D+00  E= 4.361133D-01

 Vector  197  Occ=0.000000D+00  E= 4.375819D-01

 Vector  198  Occ=0.000000D+00  E= 4.380805D-01

 Vector  199  Occ=0.000000D+00  E= 4.421759D-01

 Vector  200  Occ=0.000000D+00  E= 4.438709D-01

 Vector  201  Occ=0.000000D+00  E= 4.471615D-01

 Vector  202  Occ=0.000000D+00  E= 4.510918D-01

 Vector  203  Occ=0.000000D+00  E= 4.557211D-01

 Vector  204  Occ=0.000000D+00  E= 4.570520D-01

 Vector  205  Occ=0.000000D+00  E= 4.643522D-01

 Vector  206  Occ=0.000000D+00  E= 4.699877D-01

 Vector  207  Occ=0.000000D+00  E= 4.728007D-01

 Vector  208  Occ=0.000000D+00  E= 4.735065D-01

 Vector  209  Occ=0.000000D+00  E= 4.773260D-01

 Vector  210  Occ=0.000000D+00  E= 4.830076D-01

 Vector  211  Occ=0.000000D+00  E= 4.849691D-01

 Vector  212  Occ=0.000000D+00  E= 4.860483D-01

 Vector  213  Occ=0.000000D+00  E= 4.899936D-01

 Vector  214  Occ=0.000000D+00  E= 4.944905D-01

 Vector  215  Occ=0.000000D+00  E= 4.960261D-01

 Vector  216  Occ=0.000000D+00  E= 5.007679D-01

       Multipole analysis of the density wrt the origin
       ------------------------------------------------

     L   x y z        total         open         nuclear
     -   - - -        -----         ----         -------
     0   0 0 0      0.000000      0.000000    162.000000

     1   1 0 0      1.114584      0.000000     -0.000000
     1   0 1 0      2.437678      0.000000      0.000000
     1   0 0 1     -0.430242      0.000000      0.000000

     2   2 0 0    -88.003753      0.000000   1461.417667
     2   1 1 0     -0.837658      0.000000    -30.662788
     2   1 0 1     -5.295538      0.000000    -25.156106
     2   0 2 0   -102.939830      0.000000   6027.513192
     2   0 1 1      6.381602      0.000000      5.187312

 Total times  cpu:     5509.5s     wall:     5527.5s
