============================== echo of input deck ==============================
start ASP_ARG_5
geometry
H          1.65800        7.46000        4.58300
C          1.17200        7.88800        5.45800
H          0.11500        7.62800        5.45200
H          1.29300        8.96900        5.45200
C          1.81400        7.32000        6.69900
O          1.14400        6.67000        7.49000
N          3.09400        7.63000        6.88100
H          3.50500        8.29400        6.23300
C          3.99700        7.16900        7.95400
H          4.22900        6.11600        7.79800
C          5.30500        7.98200        7.85100
H          5.95900        7.71900        8.68400
H          5.81600        7.70600        6.92700
C          5.06000        9.49800        7.83800
O          5.30400       10.15900        8.86600
O          4.47000       10.02100        6.86400
C          3.40600        7.29800        9.37400
O          3.59700        6.42200       10.21300
N          2.62500        8.35600        9.61100
H          2.59200        9.04100        8.87100
C          1.67700        8.48900       10.73000
H          1.34100        7.47900       10.97400
C          2.35100        9.02200       12.01600
H          1.57500        9.33700       12.71500
H          2.85300        8.17200       12.48100
C          3.40700       10.13800       11.91600
H          3.73600       10.35500       12.93200
H          4.28000        9.76800       11.37500
C          2.93500       11.45900       11.29400
H          1.90600       11.65800       11.58800
H          3.55600       12.25900       11.70200
N          3.11500       11.46100        9.83300
H          4.01400       11.09700        9.50300
C          2.32200       11.93200        8.89600
N          1.12200       12.36700        9.15500
H          0.73500       12.10400       10.05300
H          0.53700       12.71400        8.42600
N          2.71300       11.93500        7.65800
H          3.57300       11.41900        7.42100
H          2.14900       12.29300        6.91900
C          0.40500        9.21400       10.28600
O          0.03600       10.27400       10.78500
N         -0.24000        8.69100        9.25600
H          0.11500        7.84300        8.82700
H         -1.08800        9.12500        8.93800
end

basis
 * library aug-cc-pvdz
end

echo

scf
 direct
end

task scf energy
================================================================================

 Output coordinates in angstroms (scale by  1.889725989 to convert to a.u.)

  No.       Tag          Charge          X              Y              Z
 ---- ---------------- ---------- -------------- -------------- --------------
    1 H                    1.0000    -0.54406541    -3.98319749    -2.68614389
    2 C                    6.0000    -0.93965363    -2.97718752    -2.55785167
    3 H                    1.0000    -1.92574496    -2.91194793    -3.01419877
    4 H                    1.0000    -0.26520676    -2.25729248    -3.01622984
    5 C                    6.0000    -1.05679901    -2.68373879    -1.08305209
    6 O                    8.0000    -2.15188524    -2.44160236    -0.59393337
    7 N                    7.0000     0.08821381    -2.64771540    -0.40831366
    8 H                    1.0000     0.94458037    -2.72186550    -0.94762718
    9 C                    6.0000     0.28248531    -2.45542458     1.04239025
   10 H                    1.0000    -0.05029329    -3.34920113     1.56906935
   11 C                    6.0000     1.79374151    -2.26895813     1.29493124
   12 H                    1.0000     1.95730608    -2.04247826     2.34979024
   13 H                    1.0000     2.30340518    -3.20826697     1.07353826
   14 C                    6.0000     2.40762989    -1.16427203     0.42242927
   15 O                    8.0000     2.68188147    -0.06524586     0.94220666
   16 O                    8.0000     2.47148594    -1.32043725    -0.81927916
   17 C                    6.0000    -0.50182310    -1.26340784     1.63084451
   18 O                    8.0000    -1.03827295    -1.34999695     2.73198114
   19 N                    7.0000    -0.62904365    -0.18124526     0.85738922
   20 H                    1.0000    -0.09372238    -0.19796708     0.00236553
   21 C                    6.0000    -1.61789065     0.89413467     1.04257457
   22 H                    1.0000    -2.49065304     0.43586564     1.51247596
   23 C                    6.0000    -1.13502762     1.97703961     2.03571161
   24 H                    1.0000    -1.77691551     2.85379181     1.93933986
   25 H                    1.0000    -1.30816022     1.58146466     3.03784661
   26 C                    6.0000     0.33430947     2.43617411     2.00679760
   27 H                    1.0000     0.44361952     3.19781579     2.77850950
   28 H                    1.0000     0.98276620     1.60522395     2.29093789
   29 C                    6.0000     0.82416412     3.04617655     0.68670350
   30 H                    1.0000     0.02509240     3.62764154     0.23034744
   31 H                    1.0000     1.64044596     3.73256157     0.92050804
   32 N                    7.0000     1.35893383     2.01491673    -0.21742567
   33 H                    1.0000     1.97528279     1.32496734     0.22266613
   34 C                    6.0000     1.22214733     1.89569575    -1.51962950
   35 N                    7.0000     0.42067783     2.65824900    -2.20699051
   36 H                    1.0000    -0.26945219     3.17530918    -1.67622564
   37 H                    1.0000     0.32958415     2.54438493    -3.19330279
   38 N                    7.0000     1.86758795     0.96627471    -2.15611747
   39 H                    1.0000     2.34689544     0.24275564    -1.60041117
   40 H                    1.0000     1.80188722     0.84831943    -3.14310833
   41 C                    6.0000    -2.13556424     1.39926681    -0.30560961
   42 O                    8.0000    -2.00047559     2.56279046    -0.67537410
   43 N                    7.0000    -2.65797885     0.48993061    -1.11223508
   44 H                    1.0000    -2.71006772    -0.47524390    -0.80418491
   45 H                    1.0000    -3.02350566     0.77743044    -2.00235755

         Total SCF energy =  -1168.502602828913

 Vector  151  Occ=0.000000D+00  E= 2.377824D-01

 Vector  152  Occ=0.000000D+00  E= 2.397764D-01

 Vector  153  Occ=0.000000D+00  E= 2.420471D-01

 Vector  154  Occ=0.000000D+00  E= 2.465284D-01

 Vector  155  Occ=0.000000D+00  E= 2.526467D-01

 Vector  156  Occ=0.000000D+00  E= 2.544130D-01

 Vector  157  Occ=0.000000D+00  E= 2.563438D-01

 Vector  158  Occ=0.000000D+00  E= 2.579388D-01

 Vector  159  Occ=0.000000D+00  E= 2.627406D-01

 Vector  160  Occ=0.000000D+00  E= 2.635646D-01

 Vector  161  Occ=0.000000D+00  E= 2.655204D-01

 Vector  162  Occ=0.000000D+00  E= 2.729617D-01

 Vector  163  Occ=0.000000D+00  E= 2.780778D-01

 Vector  164  Occ=0.000000D+00  E= 2.821119D-01

 Vector  165  Occ=0.000000D+00  E= 2.846036D-01

 Vector  166  Occ=0.000000D+00  E= 2.891502D-01

 Vector  167  Occ=0.000000D+00  E= 2.933922D-01

 Vector  168  Occ=0.000000D+00  E= 3.018317D-01

 Vector  169  Occ=0.000000D+00  E= 3.075502D-01

 Vector  170  Occ=0.000000D+00  E= 3.098773D-01

 Vector  171  Occ=0.000000D+00  E= 3.115299D-01

 Vector  172  Occ=0.000000D+00  E= 3.189575D-01

 Vector  173  Occ=0.000000D+00  E= 3.241284D-01

 Vector  174  Occ=0.000000D+00  E= 3.266493D-01

 Vector  175  Occ=0.000000D+00  E= 3.288861D-01

 Vector  176  Occ=0.000000D+00  E= 3.307516D-01

 Vector  177  Occ=0.000000D+00  E= 3.328608D-01

 Vector  178  Occ=0.000000D+00  E= 3.399403D-01

 Vector  179  Occ=0.000000D+00  E= 3.459089D-01

 Vector  180  Occ=0.000000D+00  E= 3.475964D-01

 Vector  181  Occ=0.000000D+00  E= 3.512504D-01

 Vector  182  Occ=0.000000D+00  E= 3.526518D-01

 Vector  183  Occ=0.000000D+00  E= 3.590253D-01

 Vector  184  Occ=0.000000D+00  E= 3.611875D-01

 Vector  185  Occ=0.000000D+00  E= 3.631282D-01

 Vector  186  Occ=0.000000D+00  E= 3.646138D-01

 Vector  187  Occ=0.000000D+00  E= 3.668060D-01

 Vector  188  Occ=0.000000D+00  E= 3.717705D-01

 Vector  189  Occ=0.000000D+00  E= 3.725822D-01

 Vector  190  Occ=0.000000D+00  E= 3.756257D-01

 Vector  191  Occ=0.000000D+00  E= 3.802063D-01

 Vector  192  Occ=0.000000D+00  E= 3.829828D-01

 Vector  193  Occ=0.000000D+00  E= 3.873925D-01

 Vector  194  Occ=0.000000D+00  E= 3.891163D-01

 Vector  195  Occ=0.000000D+00  E= 3.909166D-01

 Vector  196  Occ=0.000000D+00  E= 3.961911D-01

 Vector  197  Occ=0.000000D+00  E= 3.972952D-01

 Vector  198  Occ=0.000000D+00  E= 4.008574D-01

 Vector  199  Occ=0.000000D+00  E= 4.021096D-01

 Vector  200  Occ=0.000000D+00  E= 4.038388D-01

 Vector  201  Occ=0.000000D+00  E= 4.115443D-01

 Vector  202  Occ=0.000000D+00  E= 4.133585D-01

 Vector  203  Occ=0.000000D+00  E= 4.146757D-01

 Vector  204  Occ=0.000000D+00  E= 4.215411D-01

 Vector  205  Occ=0.000000D+00  E= 4.238835D-01

 Vector  206  Occ=0.000000D+00  E= 4.284038D-01

 Vector  207  Occ=0.000000D+00  E= 4.297311D-01

 Vector  208  Occ=0.000000D+00  E= 4.322978D-01

 Vector  209  Occ=0.000000D+00  E= 4.382026D-01

 Vector  210  Occ=0.000000D+00  E= 4.407578D-01

 Vector  211  Occ=0.000000D+00  E= 4.421827D-01

 Vector  212  Occ=0.000000D+00  E= 4.466694D-01

 Vector  213  Occ=0.000000D+00  E= 4.480208D-01

 Vector  214  Occ=0.000000D+00  E= 4.499261D-01

 Vector  215  Occ=0.000000D+00  E= 4.525011D-01

 Vector  216  Occ=0.000000D+00  E= 4.571577D-01

 Vector  217  Occ=0.000000D+00  E= 4.608612D-01

 Vector  218  Occ=0.000000D+00  E= 4.630461D-01

 Vector  219  Occ=0.000000D+00  E= 4.656812D-01

 Vector  220  Occ=0.000000D+00  E= 4.694484D-01

 Vector  221  Occ=0.000000D+00  E= 4.711701D-01

 Vector  222  Occ=0.000000D+00  E= 4.760994D-01

 Vector  223  Occ=0.000000D+00  E= 4.784019D-01

 Vector  224  Occ=0.000000D+00  E= 4.817773D-01

 Vector  225  Occ=0.000000D+00  E= 4.853525D-01

 Vector  226  Occ=0.000000D+00  E= 4.887341D-01

 Vector  227  Occ=0.000000D+00  E= 4.911907D-01

 Vector  228  Occ=0.000000D+00  E= 4.986444D-01

 Vector  229  Occ=0.000000D+00  E= 4.991001D-01

 Vector  230  Occ=0.000000D+00  E= 5.035067D-01

       Multipole analysis of the density wrt the origin
       ------------------------------------------------

     L   x y z        total         open         nuclear
     -   - - -        -----         ----         -------
     0   0 0 0     -0.000000      0.000000    176.000000

     1   1 0 0     -0.188658      0.000000     -0.000000
     1   0 1 0      1.196156      0.000000     -0.000000
     1   0 0 1     -2.920081      0.000000      0.000000

     2   2 0 0   -117.203311      0.000000   1663.740511
     2   1 1 0     -1.744333      0.000000     -1.410577
     2   1 0 1      2.740747      0.000000     11.756702
     2   0 2 0    -95.681992      0.000000   2611.997432
     2   0 1 1      1.799198      0.000000     45.645645

 Total times  cpu:    10658.6s     wall:    10710.4s
