============================== echo of input deck ==============================
start GLN_CYS_1
geometry
H         14.43600        8.58200       -6.42900
C         13.76500        7.75100       -6.22500
H         14.20400        7.10400       -5.46700
H         13.59100        7.18000       -7.13500
C         12.44900        8.28500       -5.71100
O         12.05000        7.96800       -4.59800
N         11.77700        9.09400       -6.52700
H         12.15600        9.27300       -7.44500
C         10.46300        9.68000       -6.23800
H          9.88300        8.95000       -5.67300
C         10.62300       10.97600       -5.40700
H         11.63500       11.36900       -5.52000
H          9.94100       11.74200       -5.77900
C         10.32700       10.77300       -3.91000
H         11.02500       10.04800       -3.49500
H         10.48500       11.71900       -3.39200
C          8.89800       10.30700       -3.62900
O          8.04600       10.23600       -4.49900
N          8.57600        9.96500       -2.40200
H          7.63000        9.65700       -2.26700
H          9.26200        9.97200       -1.67100
C          9.68000        9.95500       -7.53200
O         10.26200        9.99800       -8.61600
N          8.36600       10.16700       -7.42200
H          7.96500       10.17600       -6.48600
C          7.44200       10.39500       -8.54300
H          7.70500        9.68900       -9.33200
C          6.01700       10.05400       -8.07300
H          5.33500       10.09700       -8.92400
H          5.99900        9.04400       -7.66000
S          5.45900       11.23100       -6.80800
H          5.40900       12.28900       -7.63300
C          7.54500       11.80000       -9.18900
O          6.54800       12.39200       -9.59100
N          8.73300       12.38200       -9.28600
H          8.78800       13.29700       -9.70000
H          9.55800       11.86800       -9.01300
end

basis
 * library aug-cc-pvdz
end

echo

scf
 direct
end

task scf energy
================================================================================

 Output coordinates in angstroms (scale by  1.889725989 to convert to a.u.)

  No.       Tag          Charge          X              Y              Z
 ---- ---------------- ---------- -------------- -------------- --------------
    1 H                    1.0000     2.64513679    -4.89343895     0.43939295
    2 C                    6.0000     2.18780827    -4.78520544    -0.54119572
    3 H                    1.0000     1.78810079    -5.74460945    -0.86626783
    4 H                    1.0000     2.92588723    -4.43548021    -1.26046528
    5 C                    6.0000     1.05801887    -3.78619815    -0.45892576
    6 O                    8.0000    -0.08449822    -4.12658572    -0.73686461
    7 N                    7.0000     1.38267022    -2.55253610    -0.07866209
    8 H                    1.0000     2.35482050    -2.34316163     0.09307075
    9 C                    6.0000     0.44567563    -1.42743668     0.01985405
   10 H                    1.0000    -0.28579858    -1.52404605    -0.78272748
   11 C                    6.0000    -0.27579241    -1.44657423     1.38912196
   12 H                    1.0000     0.29853423    -2.03720995     2.10512501
   13 H                    1.0000    -0.33827975    -0.43379102     1.78990808
   14 C                    6.0000    -1.70725959    -2.00719040     1.30883991
   15 H                    1.0000    -1.67666887    -3.03717805     0.95777916
   16 H                    1.0000    -2.13671665    -2.01132675     2.31071491
   17 C                    6.0000    -2.62901468    -1.19660286     0.39698828
   18 O                    8.0000    -2.29207470    -0.13740831    -0.10542924
   19 N                    7.0000    -3.83069685    -1.66182166     0.14065171
   20 H                    1.0000    -4.39670470    -1.10065311    -0.46986445
   21 H                    1.0000    -4.12532264    -2.54871791     0.50344184
   22 C                    6.0000     1.16283053    -0.08561698    -0.20005216
   23 O                    8.0000     2.38774290    -0.00977960    -0.10275165
   24 N                    7.0000     0.40417391     0.97958346    -0.47102848
   25 H                    1.0000    -0.60611728     0.85202790    -0.47542054
   26 C                    6.0000     0.90451994     2.33160897    -0.76099721
   27 H                    1.0000     1.76231296     2.22674965    -1.42682125
   28 C                    6.0000    -0.18682779     3.09737457    -1.52935205
   29 H                    1.0000     0.21069314     4.05786443    -1.86193338
   30 H                    1.0000    -0.49111567     2.52170289    -2.40513970
   31 S                   16.0000    -1.63237506     3.39043577    -0.47037791
   32 H                    1.0000    -1.00759027     4.23510511     0.36548492
   33 C                    6.0000     1.42834491     3.10513031     0.47562001
   34 O                    8.0000     1.24678422     4.31279573     0.59668581
   35 N                    7.0000     2.06417288     2.44164980     1.43217289
   36 H                    1.0000     2.39352368     2.95171686     2.23404921
   37 H                    1.0000     2.26760927     1.46143395     1.30125106

         Total SCF energy =  -1304.166382301289

 Vector  124  Occ=0.000000D+00  E= 1.998867D-01

 Vector  125  Occ=0.000000D+00  E= 2.034768D-01

 Vector  126  Occ=0.000000D+00  E= 2.051702D-01

 Vector  127  Occ=0.000000D+00  E= 2.094818D-01

 Vector  128  Occ=0.000000D+00  E= 2.096807D-01

 Vector  129  Occ=0.000000D+00  E= 2.111859D-01

 Vector  130  Occ=0.000000D+00  E= 2.169856D-01

 Vector  131  Occ=0.000000D+00  E= 2.201786D-01

 Vector  132  Occ=0.000000D+00  E= 2.234663D-01

 Vector  133  Occ=0.000000D+00  E= 2.274791D-01

 Vector  134  Occ=0.000000D+00  E= 2.358345D-01

 Vector  135  Occ=0.000000D+00  E= 2.395486D-01

 Vector  136  Occ=0.000000D+00  E= 2.442204D-01

 Vector  137  Occ=0.000000D+00  E= 2.464485D-01

 Vector  138  Occ=0.000000D+00  E= 2.486987D-01

 Vector  139  Occ=0.000000D+00  E= 2.572104D-01

 Vector  140  Occ=0.000000D+00  E= 2.589294D-01

 Vector  141  Occ=0.000000D+00  E= 2.639406D-01

 Vector  142  Occ=0.000000D+00  E= 2.709087D-01

 Vector  143  Occ=0.000000D+00  E= 2.712241D-01

 Vector  144  Occ=0.000000D+00  E= 2.801272D-01

 Vector  145  Occ=0.000000D+00  E= 2.867248D-01

 Vector  146  Occ=0.000000D+00  E= 2.890975D-01

 Vector  147  Occ=0.000000D+00  E= 2.935062D-01

 Vector  148  Occ=0.000000D+00  E= 3.024877D-01

 Vector  149  Occ=0.000000D+00  E= 3.041030D-01

 Vector  150  Occ=0.000000D+00  E= 3.077350D-01

 Vector  151  Occ=0.000000D+00  E= 3.110885D-01

 Vector  152  Occ=0.000000D+00  E= 3.173916D-01

 Vector  153  Occ=0.000000D+00  E= 3.233787D-01

 Vector  154  Occ=0.000000D+00  E= 3.255561D-01

 Vector  155  Occ=0.000000D+00  E= 3.286488D-01

 Vector  156  Occ=0.000000D+00  E= 3.351984D-01

 Vector  157  Occ=0.000000D+00  E= 3.359222D-01

 Vector  158  Occ=0.000000D+00  E= 3.390054D-01

 Vector  159  Occ=0.000000D+00  E= 3.428588D-01

 Vector  160  Occ=0.000000D+00  E= 3.472106D-01

 Vector  161  Occ=0.000000D+00  E= 3.542599D-01

 Vector  162  Occ=0.000000D+00  E= 3.546989D-01

 Vector  163  Occ=0.000000D+00  E= 3.584747D-01

 Vector  164  Occ=0.000000D+00  E= 3.603613D-01

 Vector  165  Occ=0.000000D+00  E= 3.664808D-01

 Vector  166  Occ=0.000000D+00  E= 3.700079D-01

 Vector  167  Occ=0.000000D+00  E= 3.716637D-01

 Vector  168  Occ=0.000000D+00  E= 3.762282D-01

 Vector  169  Occ=0.000000D+00  E= 3.771864D-01

 Vector  170  Occ=0.000000D+00  E= 3.825971D-01

 Vector  171  Occ=0.000000D+00  E= 3.856585D-01

 Vector  172  Occ=0.000000D+00  E= 3.876135D-01

 Vector  173  Occ=0.000000D+00  E= 3.907804D-01

 Vector  174  Occ=0.000000D+00  E= 3.960381D-01

 Vector  175  Occ=0.000000D+00  E= 3.991706D-01

 Vector  176  Occ=0.000000D+00  E= 4.029496D-01

 Vector  177  Occ=0.000000D+00  E= 4.078846D-01

 Vector  178  Occ=0.000000D+00  E= 4.085404D-01

 Vector  179  Occ=0.000000D+00  E= 4.134499D-01

 Vector  180  Occ=0.000000D+00  E= 4.183108D-01

 Vector  181  Occ=0.000000D+00  E= 4.200155D-01

 Vector  182  Occ=0.000000D+00  E= 4.232061D-01

 Vector  183  Occ=0.000000D+00  E= 4.271179D-01

 Vector  184  Occ=0.000000D+00  E= 4.310521D-01

 Vector  185  Occ=0.000000D+00  E= 4.326027D-01

 Vector  186  Occ=0.000000D+00  E= 4.352917D-01

 Vector  187  Occ=0.000000D+00  E= 4.385690D-01

 Vector  188  Occ=0.000000D+00  E= 4.440214D-01

 Vector  189  Occ=0.000000D+00  E= 4.471523D-01

 Vector  190  Occ=0.000000D+00  E= 4.507081D-01

 Vector  191  Occ=0.000000D+00  E= 4.552003D-01

 Vector  192  Occ=0.000000D+00  E= 4.560200D-01

 Vector  193  Occ=0.000000D+00  E= 4.596398D-01

 Vector  194  Occ=0.000000D+00  E= 4.676841D-01

 Vector  195  Occ=0.000000D+00  E= 4.690724D-01

 Vector  196  Occ=0.000000D+00  E= 4.778759D-01

 Vector  197  Occ=0.000000D+00  E= 4.816514D-01

 Vector  198  Occ=0.000000D+00  E= 4.888008D-01

 Vector  199  Occ=0.000000D+00  E= 4.904182D-01

 Vector  200  Occ=0.000000D+00  E= 4.938616D-01

 Vector  201  Occ=0.000000D+00  E= 4.972776D-01

 Vector  202  Occ=0.000000D+00  E= 4.992058D-01

 Vector  203  Occ=0.000000D+00  E= 5.024476D-01

       Multipole analysis of the density wrt the origin
       ------------------------------------------------

     L   x y z        total         open         nuclear
     -   - - -        -----         ----         -------
     0   0 0 0      0.000000      0.000000    154.000000

     1   1 0 0     -0.276695      0.000000     -0.000000
     1   0 1 0     -2.015686      0.000000      0.000000
     1   0 0 1      0.756401      0.000000     -0.000000

     2   2 0 0    -80.908814      0.000000   1768.780161
     2   1 1 0      1.046607      0.000000    -14.296141
     2   1 0 1     -1.046991      0.000000     -6.445418
     2   0 2 0   -105.980058      0.000000   4208.701732
     2   0 1 1     -6.872325      0.000000    -19.985618

 Total times  cpu:    12568.2s     wall:    12607.1s
