 Output coordinates in angstroms (scale by  1.889725989 to convert to a.u.)

  No.       Tag          Charge          X              Y              Z
 ---- ---------------- ---------- -------------- -------------- --------------
    1 H                    1.0000    -2.65121259    -4.23916172     0.52304794
    2 C                    6.0000    -1.67326962    -4.32397843     0.04937647
    3 H                    1.0000    -1.79307480    -4.33952718    -1.03180296
    4 H                    1.0000    -1.18308529    -5.23541617     0.38499615
    5 C                    6.0000    -0.83711141    -3.12941801     0.44087854
    6 O                    8.0000    -1.29923862    -2.26531124     1.17564785
    7 N                    7.0000     0.40032420    -3.07774678    -0.04764595
    8 H                    1.0000     0.70154650    -3.80194933    -0.67828831
    9 C                    6.0000     1.28746707    -1.93649770     0.16818750
   10 H                    1.0000     1.31757012    -1.72557282     1.23943234
   11 C                    6.0000     2.70423155    -2.30992618    -0.28576249
   12 H                    1.0000     2.70627438    -2.52905436    -1.35492228
   13 H                    1.0000     3.38134766    -1.47690929    -0.09392235
   14 H                    1.0000     3.05349240    -3.18387943     0.26453250
   15 C                    6.0000     0.76457467    -0.67885073    -0.55375892
   16 O                    8.0000     0.42825393    -0.72402750    -1.73707646
   17 N                    7.0000     0.71514387     0.45263261     0.15073739
   18 H                    1.0000     1.02378115     0.44723111     1.11295663
   19 C                    6.0000     0.22651329     1.73583147    -0.37493822
   20 H                    1.0000     0.58949487     1.84760450    -1.39575954
   21 C                    6.0000    -1.31480843     1.73428327    -0.42603574
   22 H                    1.0000    -1.65311216     0.80633109    -0.88847422
   23 C                    6.0000    -1.99016946     1.86313418     0.93896460
   24 H                    1.0000    -1.75294050     2.82179239     1.39997855
   25 H                    1.0000    -3.07101921     1.79047284     0.81225963
   26 H                    1.0000    -1.66184968     1.05249955     1.59026069
   27 O                    8.0000    -1.75883017     2.80210637    -1.23121866
   28 H                    1.0000    -1.86393204     2.45884837    -2.12341009
   29 C                    6.0000     0.78492878     2.91282386     0.43869932
   30 O                    8.0000     1.43317237     2.71853988     1.46307131
   31 N                    7.0000     0.57211805     4.14597435     0.00413119
   32 H                    1.0000    -0.03387648     4.29093298    -0.78991706
   33 H                    1.0000     0.93649410     4.91486566     0.54141533

         Total SCF energy =   -813.695566362753

 Vector   92  Occ=0.000000D+00  E= 1.677338D-01

 Vector   93  Occ=0.000000D+00  E= 1.696303D-01

 Vector   94  Occ=0.000000D+00  E= 1.717244D-01

 Vector   95  Occ=0.000000D+00  E= 1.749856D-01

 Vector   96  Occ=0.000000D+00  E= 1.772532D-01

 Vector   97  Occ=0.000000D+00  E= 1.776489D-01

 Vector   98  Occ=0.000000D+00  E= 1.796778D-01

 Vector   99  Occ=0.000000D+00  E= 1.862103D-01

 Vector  100  Occ=0.000000D+00  E= 1.888234D-01

 Vector  101  Occ=0.000000D+00  E= 1.908536D-01

 Vector  102  Occ=0.000000D+00  E= 1.963813D-01

 Vector  103  Occ=0.000000D+00  E= 1.998826D-01

 Vector  104  Occ=0.000000D+00  E= 2.007640D-01

 Vector  105  Occ=0.000000D+00  E= 2.015515D-01

 Vector  106  Occ=0.000000D+00  E= 2.089399D-01

 Vector  107  Occ=0.000000D+00  E= 2.126455D-01

 Vector  108  Occ=0.000000D+00  E= 2.173302D-01

 Vector  109  Occ=0.000000D+00  E= 2.200511D-01

 Vector  110  Occ=0.000000D+00  E= 2.266749D-01

 Vector  111  Occ=0.000000D+00  E= 2.274310D-01

 Vector  112  Occ=0.000000D+00  E= 2.316968D-01

 Vector  113  Occ=0.000000D+00  E= 2.347885D-01

 Vector  114  Occ=0.000000D+00  E= 2.384227D-01

 Vector  115  Occ=0.000000D+00  E= 2.494761D-01

 Vector  116  Occ=0.000000D+00  E= 2.547032D-01

 Vector  117  Occ=0.000000D+00  E= 2.593897D-01

 Vector  118  Occ=0.000000D+00  E= 2.642974D-01

 Vector  119  Occ=0.000000D+00  E= 2.783255D-01

 Vector  120  Occ=0.000000D+00  E= 2.790727D-01

 Vector  121  Occ=0.000000D+00  E= 2.832906D-01

 Vector  122  Occ=0.000000D+00  E= 2.891039D-01

 Vector  123  Occ=0.000000D+00  E= 2.956956D-01

 Vector  124  Occ=0.000000D+00  E= 3.051424D-01

 Vector  125  Occ=0.000000D+00  E= 3.080893D-01

 Vector  126  Occ=0.000000D+00  E= 3.190500D-01

 Vector  127  Occ=0.000000D+00  E= 3.207742D-01

 Vector  128  Occ=0.000000D+00  E= 3.253066D-01

 Vector  129  Occ=0.000000D+00  E= 3.281450D-01

 Vector  130  Occ=0.000000D+00  E= 3.313216D-01

 Vector  131  Occ=0.000000D+00  E= 3.394973D-01

 Vector  132  Occ=0.000000D+00  E= 3.436827D-01

 Vector  133  Occ=0.000000D+00  E= 3.453343D-01

 Vector  134  Occ=0.000000D+00  E= 3.478266D-01

 Vector  135  Occ=0.000000D+00  E= 3.518345D-01

 Vector  136  Occ=0.000000D+00  E= 3.572758D-01

 Vector  137  Occ=0.000000D+00  E= 3.637008D-01

 Vector  138  Occ=0.000000D+00  E= 3.670203D-01

 Vector  139  Occ=0.000000D+00  E= 3.730670D-01

 Vector  140  Occ=0.000000D+00  E= 3.752554D-01

 Vector  141  Occ=0.000000D+00  E= 3.773706D-01

 Vector  142  Occ=0.000000D+00  E= 3.815626D-01

 Vector  143  Occ=0.000000D+00  E= 3.865842D-01

 Vector  144  Occ=0.000000D+00  E= 3.906362D-01

 Vector  145  Occ=0.000000D+00  E= 3.953011D-01

 Vector  146  Occ=0.000000D+00  E= 3.985634D-01

 Vector  147  Occ=0.000000D+00  E= 4.010907D-01

 Vector  148  Occ=0.000000D+00  E= 4.075331D-01

 Vector  149  Occ=0.000000D+00  E= 4.100957D-01

 Vector  150  Occ=0.000000D+00  E= 4.113247D-01

 Vector  151  Occ=0.000000D+00  E= 4.152220D-01

 Vector  152  Occ=0.000000D+00  E= 4.202667D-01

 Vector  153  Occ=0.000000D+00  E= 4.220989D-01

 Vector  154  Occ=0.000000D+00  E= 4.253923D-01

 Vector  155  Occ=0.000000D+00  E= 4.282307D-01

 Vector  156  Occ=0.000000D+00  E= 4.348372D-01

 Vector  157  Occ=0.000000D+00  E= 4.368786D-01

 Vector  158  Occ=0.000000D+00  E= 4.416270D-01

 Vector  159  Occ=0.000000D+00  E= 4.466686D-01

 Vector  160  Occ=0.000000D+00  E= 4.537656D-01

 Vector  161  Occ=0.000000D+00  E= 4.563836D-01

 Vector  162  Occ=0.000000D+00  E= 4.628188D-01

 Vector  163  Occ=0.000000D+00  E= 4.660690D-01

 Vector  164  Occ=0.000000D+00  E= 4.737702D-01

 Vector  165  Occ=0.000000D+00  E= 4.752393D-01

 Vector  166  Occ=0.000000D+00  E= 4.808848D-01

 Vector  167  Occ=0.000000D+00  E= 4.838619D-01

 Vector  168  Occ=0.000000D+00  E= 4.855999D-01

 Vector  169  Occ=0.000000D+00  E= 4.887493D-01

 Vector  170  Occ=0.000000D+00  E= 4.960385D-01

 Vector  171  Occ=0.000000D+00  E= 5.012157D-01

       Multipole analysis of the density wrt the origin
       ------------------------------------------------

     L   x y z        total         open         nuclear
     -   - - -        -----         ----         -------
     0   0 0 0     -0.000000      0.000000    124.000000

     1   1 0 0      0.327581      0.000000     -0.000000
     1   0 1 0     -0.612144      0.000000     -0.000000
     1   0 0 1     -0.961828      0.000000      0.000000

     2   2 0 0    -72.312571      0.000000    876.049768
     2   1 1 0     -4.347234      0.000000    -23.628640
     2   1 0 1      1.808082      0.000000     -5.866923
     2   0 2 0    -52.231834      0.000000   3059.840295
     2   0 1 1     -3.413508      0.000000      3.094692

 Total times  cpu:     4082.4s     wall:     4323.9s
