 Output coordinates in angstroms (scale by  1.889725989 to convert to a.u.)

  No.       Tag          Charge          X              Y              Z
 ---- ---------------- ---------- -------------- -------------- --------------
    1 H                    1.0000    -2.57858401    -5.47450423    -0.23352079
    2 C                    6.0000    -1.56651746    -5.21621907     0.07262799
    3 H                    1.0000    -0.85962882    -5.91316817    -0.37563688
    4 H                    1.0000    -1.48266847    -5.26102164     1.15656529
    5 C                    6.0000    -1.23962849    -3.81854953    -0.39442496
    6 O                    8.0000    -0.29068224    -3.62260890    -1.14619773
    7 N                    7.0000    -2.02159785    -2.83712080     0.05335912
    8 H                    1.0000    -2.75468441    -3.06034359     0.70505052
    9 C                    6.0000    -1.77374592    -1.42928103    -0.25482687
   10 H                    1.0000    -1.79176139    -1.30904445    -1.33957551
   11 C                    6.0000    -2.90186255    -0.57587429     0.33925293
   12 H                    1.0000    -2.91318965    -0.67727419     1.42548254
   13 H                    1.0000    -2.73961823     0.47253151     0.08481225
   14 H                    1.0000    -3.86374958    -0.89333026    -0.06549519
   15 C                    6.0000    -0.38927329    -0.98956250     0.25844903
   16 O                    8.0000    -0.06417911    -1.20017378     1.42546602
   17 N                    7.0000     0.41441947    -0.38523864    -0.62343737
   18 H                    1.0000     0.05541632    -0.24072217    -1.55275149
   19 C                    6.0000     1.81100904     0.01705723    -0.37791831
   20 H                    1.0000     2.18181876     0.40823641    -1.32460147
   21 C                    6.0000     1.87707894     1.18665522     0.62299392
   22 H                    1.0000     1.70384181     0.80234619     1.62901403
   23 H                    1.0000     2.88620397     1.60215382     0.61064107
   24 C                    6.0000     0.89019580     2.30808677     0.34700487
   25 C                    6.0000     1.17477780     3.27298404    -0.63889997
   26 H                    1.0000     2.10864404     3.22634746    -1.18279322
   27 C                    6.0000     0.24857414     4.29850898    -0.91350220
   28 H                    1.0000     0.46921371     5.03718793    -1.66782414
   29 C                    6.0000    -0.96785968     4.35681162    -0.19878019
   30 O                    8.0000    -1.86886411     5.34037360    -0.45795162
   31 H                    1.0000    -1.52765221     5.98577768    -1.07595001
   32 C                    6.0000    -1.25208302     3.39055613     0.78854824
   33 H                    1.0000    -2.18290141     3.44835997     1.33249385
   34 C                    6.0000    -0.32202937     2.36980396     1.06251945
   35 H                    1.0000    -0.53720501     1.62978576     1.82261649
   36 C                    6.0000     2.78239722    -1.13249377    -0.02089098
   37 O                    8.0000     3.93021051    -0.88657593     0.33057747
   38 N                    7.0000     2.38768001    -2.39561675    -0.14174071
   39 H                    1.0000     1.44527340    -2.61477459    -0.43372807
   40 H                    1.0000     3.03964049    -3.12173268     0.09986267

         Total SCF energy =  -1004.218903504846

 Vector  134  Occ=0.000000D+00  E= 2.162471D-01

 Vector  135  Occ=0.000000D+00  E= 2.220747D-01

 Vector  136  Occ=0.000000D+00  E= 2.250441D-01

 Vector  137  Occ=0.000000D+00  E= 2.304909D-01

 Vector  138  Occ=0.000000D+00  E= 2.311878D-01

 Vector  139  Occ=0.000000D+00  E= 2.339968D-01

 Vector  140  Occ=0.000000D+00  E= 2.387367D-01

 Vector  141  Occ=0.000000D+00  E= 2.451443D-01

 Vector  142  Occ=0.000000D+00  E= 2.466856D-01

 Vector  143  Occ=0.000000D+00  E= 2.480412D-01

 Vector  144  Occ=0.000000D+00  E= 2.549523D-01

 Vector  145  Occ=0.000000D+00  E= 2.563892D-01

 Vector  146  Occ=0.000000D+00  E= 2.626795D-01

 Vector  147  Occ=0.000000D+00  E= 2.683605D-01

 Vector  148  Occ=0.000000D+00  E= 2.728465D-01

 Vector  149  Occ=0.000000D+00  E= 2.741802D-01

 Vector  150  Occ=0.000000D+00  E= 2.788561D-01

 Vector  151  Occ=0.000000D+00  E= 2.809665D-01

 Vector  152  Occ=0.000000D+00  E= 2.889395D-01

 Vector  153  Occ=0.000000D+00  E= 2.927170D-01

 Vector  154  Occ=0.000000D+00  E= 3.019566D-01

 Vector  155  Occ=0.000000D+00  E= 3.052913D-01

 Vector  156  Occ=0.000000D+00  E= 3.108970D-01

 Vector  157  Occ=0.000000D+00  E= 3.130523D-01

 Vector  158  Occ=0.000000D+00  E= 3.152846D-01

 Vector  159  Occ=0.000000D+00  E= 3.172843D-01

 Vector  160  Occ=0.000000D+00  E= 3.205416D-01

 Vector  161  Occ=0.000000D+00  E= 3.239426D-01

 Vector  162  Occ=0.000000D+00  E= 3.284739D-01

 Vector  163  Occ=0.000000D+00  E= 3.326914D-01

 Vector  164  Occ=0.000000D+00  E= 3.349298D-01

 Vector  165  Occ=0.000000D+00  E= 3.373347D-01

 Vector  166  Occ=0.000000D+00  E= 3.426692D-01

 Vector  167  Occ=0.000000D+00  E= 3.464363D-01

 Vector  168  Occ=0.000000D+00  E= 3.515344D-01

 Vector  169  Occ=0.000000D+00  E= 3.534740D-01

 Vector  170  Occ=0.000000D+00  E= 3.538271D-01

 Vector  171  Occ=0.000000D+00  E= 3.600457D-01

 Vector  172  Occ=0.000000D+00  E= 3.613802D-01

 Vector  173  Occ=0.000000D+00  E= 3.637135D-01

 Vector  174  Occ=0.000000D+00  E= 3.641178D-01

 Vector  175  Occ=0.000000D+00  E= 3.693484D-01

 Vector  176  Occ=0.000000D+00  E= 3.742494D-01

 Vector  177  Occ=0.000000D+00  E= 3.755727D-01

 Vector  178  Occ=0.000000D+00  E= 3.829532D-01

 Vector  179  Occ=0.000000D+00  E= 3.848247D-01

 Vector  180  Occ=0.000000D+00  E= 3.899877D-01

 Vector  181  Occ=0.000000D+00  E= 3.925683D-01

 Vector  182  Occ=0.000000D+00  E= 3.949444D-01

 Vector  183  Occ=0.000000D+00  E= 3.989874D-01

 Vector  184  Occ=0.000000D+00  E= 4.016207D-01

 Vector  185  Occ=0.000000D+00  E= 4.053187D-01

 Vector  186  Occ=0.000000D+00  E= 4.066232D-01

 Vector  187  Occ=0.000000D+00  E= 4.089741D-01

 Vector  188  Occ=0.000000D+00  E= 4.133753D-01

 Vector  189  Occ=0.000000D+00  E= 4.154852D-01

 Vector  190  Occ=0.000000D+00  E= 4.223387D-01

 Vector  191  Occ=0.000000D+00  E= 4.253447D-01

 Vector  192  Occ=0.000000D+00  E= 4.303257D-01

 Vector  193  Occ=0.000000D+00  E= 4.325694D-01

 Vector  194  Occ=0.000000D+00  E= 4.350771D-01

 Vector  195  Occ=0.000000D+00  E= 4.362072D-01

 Vector  196  Occ=0.000000D+00  E= 4.404229D-01

 Vector  197  Occ=0.000000D+00  E= 4.423161D-01

 Vector  198  Occ=0.000000D+00  E= 4.496877D-01

 Vector  199  Occ=0.000000D+00  E= 4.538738D-01

 Vector  200  Occ=0.000000D+00  E= 4.559786D-01

 Vector  201  Occ=0.000000D+00  E= 4.587377D-01

 Vector  202  Occ=0.000000D+00  E= 4.633540D-01

 Vector  203  Occ=0.000000D+00  E= 4.681894D-01

 Vector  204  Occ=0.000000D+00  E= 4.696476D-01

 Vector  205  Occ=0.000000D+00  E= 4.770657D-01

 Vector  206  Occ=0.000000D+00  E= 4.781923D-01

 Vector  207  Occ=0.000000D+00  E= 4.788887D-01

 Vector  208  Occ=0.000000D+00  E= 4.850141D-01

 Vector  209  Occ=0.000000D+00  E= 4.871316D-01

 Vector  210  Occ=0.000000D+00  E= 4.939593D-01

 Vector  211  Occ=0.000000D+00  E= 4.949394D-01

 Vector  212  Occ=0.000000D+00  E= 4.963078D-01

 Vector  213  Occ=0.000000D+00  E= 5.051457D-01

       Multipole analysis of the density wrt the origin
       ------------------------------------------------

     L   x y z        total         open         nuclear
     -   - - -        -----         ----         -------
     0   0 0 0     -0.000000      0.000000    156.000000

     1   1 0 0     -2.662827      0.000000      0.000000
     1   0 1 0     -0.147253      0.000000     -0.000000
     1   0 0 1     -1.102051      0.000000      0.000000

     2   2 0 0   -101.335887      0.000000   1868.395297
     2   1 1 0     12.500158      0.000000     48.276321
     2   1 0 1     -5.093829      0.000000    -15.446861
     2   0 2 0    -77.321926      0.000000   4894.266281
     2   0 1 1    -10.505527      0.000000    -21.263588

 Total times  cpu:    20235.7s     wall:    20373.6s
