 Output coordinates in angstroms (scale by  1.889725989 to convert to a.u.)

  No.       Tag          Charge          X              Y              Z
 ---- ---------------- ---------- -------------- -------------- --------------
    1 H                    1.0000    -3.15675528     2.87175434     0.45501934
    2 C                    6.0000    -2.18858818     2.82279096     0.95101134
    3 H                    1.0000    -2.27557568     2.22825996     1.85829248
    4 H                    1.0000    -1.85486848     3.82940072     1.19578459
    5 C                    6.0000    -1.19212841     2.17601359     0.01853670
    6 O                    8.0000    -1.54181658     1.79606767    -1.09046478
    7 N                    7.0000     0.05228122     2.03449940     0.47380518
    8 H                    1.0000     0.25149712     2.36564341     1.40263599
    9 C                    6.0000     1.16772025     1.46061709    -0.28838368
   10 H                    1.0000     1.12233554     1.86497462    -1.30108612
   11 C                    6.0000     2.47741662     1.95439233     0.34615270
   12 H                    1.0000     2.57367178     1.56464874     1.36047705
   13 H                    1.0000     3.32473503     1.60657362    -0.24602857
   14 H                    1.0000     2.49328364     3.04483928     0.37150400
   15 C                    6.0000     1.09710964    -0.08194725    -0.43208618
   16 O                    8.0000     2.04414500    -0.79204223    -0.09595801
   17 N                    7.0000    -0.04346112    -0.61171963    -0.88377363
   18 H                    1.0000    -0.78045316     0.04070082    -1.13244065
   19 C                    6.0000    -0.30884322    -2.04328803    -1.09898114
   20 H                    1.0000    -1.19883645    -2.14959470    -1.71929151
   21 H                    1.0000     0.53444085    -2.47656758    -1.63804774
   22 C                    6.0000    -0.51841264    -2.86838411     0.17901069
   23 O                    8.0000    -1.44364321    -3.66508851     0.25662174
   24 N                    7.0000     0.28841488    -2.67502580     1.21272822
   25 H                    1.0000     1.07008305    -2.04115533     1.11336982
   26 H                    1.0000     0.14067125    -3.21641867     2.04733866

         Total SCF energy =   -660.742640580917

 Vector   63  Occ=0.000000D+00  E= 9.918372D-02

 Vector   64  Occ=0.000000D+00  E= 1.010031D-01

 Vector   65  Occ=0.000000D+00  E= 1.137091D-01

 Vector   66  Occ=0.000000D+00  E= 1.162828D-01

 Vector   67  Occ=0.000000D+00  E= 1.252312D-01

 Vector   68  Occ=0.000000D+00  E= 1.326129D-01

 Vector   69  Occ=0.000000D+00  E= 1.415981D-01

 Vector   70  Occ=0.000000D+00  E= 1.431406D-01

 Vector   71  Occ=0.000000D+00  E= 1.466098D-01

 Vector   72  Occ=0.000000D+00  E= 1.500181D-01

 Vector   73  Occ=0.000000D+00  E= 1.538266D-01

 Vector   74  Occ=0.000000D+00  E= 1.559546D-01

 Vector   75  Occ=0.000000D+00  E= 1.580677D-01

 Vector   76  Occ=0.000000D+00  E= 1.604506D-01

 Vector   77  Occ=0.000000D+00  E= 1.627447D-01

 Vector   78  Occ=0.000000D+00  E= 1.641361D-01

 Vector   79  Occ=0.000000D+00  E= 1.713219D-01

 Vector   80  Occ=0.000000D+00  E= 1.758643D-01

 Vector   81  Occ=0.000000D+00  E= 1.761475D-01

 Vector   82  Occ=0.000000D+00  E= 1.779519D-01

 Vector   83  Occ=0.000000D+00  E= 1.805773D-01

 Vector   84  Occ=0.000000D+00  E= 1.900102D-01

 Vector   85  Occ=0.000000D+00  E= 1.926551D-01

 Vector   86  Occ=0.000000D+00  E= 1.954546D-01

 Vector   87  Occ=0.000000D+00  E= 2.036543D-01

 Vector   88  Occ=0.000000D+00  E= 2.061605D-01

 Vector   89  Occ=0.000000D+00  E= 2.110727D-01

 Vector   90  Occ=0.000000D+00  E= 2.156593D-01

 Vector   91  Occ=0.000000D+00  E= 2.248286D-01

 Vector   92  Occ=0.000000D+00  E= 2.366393D-01

 Vector   93  Occ=0.000000D+00  E= 2.376718D-01

 Vector   94  Occ=0.000000D+00  E= 2.430932D-01

 Vector   95  Occ=0.000000D+00  E= 2.464414D-01

 Vector   96  Occ=0.000000D+00  E= 2.507772D-01

 Vector   97  Occ=0.000000D+00  E= 2.522115D-01

 Vector   98  Occ=0.000000D+00  E= 2.691927D-01

 Vector   99  Occ=0.000000D+00  E= 2.723486D-01

 Vector  100  Occ=0.000000D+00  E= 2.767426D-01

 Vector  101  Occ=0.000000D+00  E= 2.856337D-01

 Vector  102  Occ=0.000000D+00  E= 2.875866D-01

 Vector  103  Occ=0.000000D+00  E= 3.054960D-01

 Vector  104  Occ=0.000000D+00  E= 3.105514D-01

 Vector  105  Occ=0.000000D+00  E= 3.139710D-01

 Vector  106  Occ=0.000000D+00  E= 3.248950D-01

 Vector  107  Occ=0.000000D+00  E= 3.278015D-01

 Vector  108  Occ=0.000000D+00  E= 3.358344D-01

 Vector  109  Occ=0.000000D+00  E= 3.365753D-01

 Vector  110  Occ=0.000000D+00  E= 3.383653D-01

 Vector  111  Occ=0.000000D+00  E= 3.454237D-01

 Vector  112  Occ=0.000000D+00  E= 3.516311D-01

 Vector  113  Occ=0.000000D+00  E= 3.529124D-01

 Vector  114  Occ=0.000000D+00  E= 3.586101D-01

 Vector  115  Occ=0.000000D+00  E= 3.617957D-01

 Vector  116  Occ=0.000000D+00  E= 3.735968D-01

 Vector  117  Occ=0.000000D+00  E= 3.754896D-01

 Vector  118  Occ=0.000000D+00  E= 3.785966D-01

 Vector  119  Occ=0.000000D+00  E= 3.841141D-01

 Vector  120  Occ=0.000000D+00  E= 3.890521D-01

 Vector  121  Occ=0.000000D+00  E= 3.902000D-01

 Vector  122  Occ=0.000000D+00  E= 3.951999D-01

 Vector  123  Occ=0.000000D+00  E= 4.014325D-01

 Vector  124  Occ=0.000000D+00  E= 4.063104D-01

 Vector  125  Occ=0.000000D+00  E= 4.112600D-01

 Vector  126  Occ=0.000000D+00  E= 4.188544D-01

 Vector  127  Occ=0.000000D+00  E= 4.221827D-01

 Vector  128  Occ=0.000000D+00  E= 4.255069D-01

 Vector  129  Occ=0.000000D+00  E= 4.319857D-01

 Vector  130  Occ=0.000000D+00  E= 4.378757D-01

 Vector  131  Occ=0.000000D+00  E= 4.428229D-01

 Vector  132  Occ=0.000000D+00  E= 4.492866D-01

 Vector  133  Occ=0.000000D+00  E= 4.516800D-01

 Vector  134  Occ=0.000000D+00  E= 4.618433D-01

 Vector  135  Occ=0.000000D+00  E= 4.698039D-01

 Vector  136  Occ=0.000000D+00  E= 4.729533D-01

 Vector  137  Occ=0.000000D+00  E= 4.793775D-01

 Vector  138  Occ=0.000000D+00  E= 4.845451D-01

 Vector  139  Occ=0.000000D+00  E= 4.922193D-01

 Vector  140  Occ=0.000000D+00  E= 4.932088D-01

 Vector  141  Occ=0.000000D+00  E= 4.993542D-01

 Vector  142  Occ=0.000000D+00  E= 5.037825D-01

       Multipole analysis of the density wrt the origin
       ------------------------------------------------

     L   x y z        total         open         nuclear
     -   - - -        -----         ----         -------
     0   0 0 0     -0.000000      0.000000    100.000000

     1   1 0 0      0.715926      0.000000      0.000000
     1   0 1 0      2.467907      0.000000     -0.000000
     1   0 0 1      1.004473      0.000000      0.000000

     2   2 0 0    -64.491466      0.000000    745.321190
     2   1 1 0     -4.575183      0.000000     -5.113293
     2   1 0 1     -1.939796      0.000000     -3.158477
     2   0 2 0    -63.614127      0.000000   1724.412458
     2   0 1 1      5.312623      0.000000     22.697919

 Total times  cpu:     2024.4s     wall:     2192.3s
