 Output coordinates in angstroms (scale by  1.889725989 to convert to a.u.)

  No.       Tag          Charge          X              Y              Z
 ---- ---------------- ---------- -------------- -------------- --------------
    1 H                    1.0000     3.85927240     3.39649532     0.81524436
    2 C                    6.0000     3.15087900     3.78568642     0.08438249
    3 H                    1.0000     3.39784283     3.39787908    -0.90209627
    4 H                    1.0000     3.19436641     4.87285843     0.08040017
    5 C                    6.0000     1.75953740     3.33991142     0.46708891
    6 O                    8.0000     1.58612599     2.64722872     1.46087117
    7 N                    7.0000     0.76622931     3.72593581    -0.33106032
    8 H                    1.0000     0.99860443     4.28499599    -1.13462085
    9 C                    6.0000    -0.65203353     3.41083772    -0.12098005
   10 H                    1.0000    -0.87351951     3.55164079     0.93853137
   11 C                    6.0000    -1.48725694     4.43222710    -0.90940481
   12 H                    1.0000    -1.23073364     5.44489318    -0.59658343
   13 H                    1.0000    -1.30236611     4.32250955    -1.97873892
   14 H                    1.0000    -2.54714009     4.26242559    -0.71605501
   15 C                    6.0000    -1.00853657     1.93924893    -0.45182897
   16 O                    8.0000    -1.86020284     1.66448505    -1.29765896
   17 N                    7.0000    -0.33247028     0.98133240     0.18984018
   18 H                    1.0000     0.35871986     1.27601986     0.87186399
   19 C                    6.0000    -0.53311564    -0.45862239    -0.00278548
   20 H                    1.0000    -0.64921184    -0.64524757    -1.07110646
   21 C                    6.0000     0.73375735    -1.20162558     0.45492524
   22 H                    1.0000     1.60459559    -0.71428715     0.01377446
   23 H                    1.0000     0.83104304    -1.11650106     1.53914538
   24 C                    6.0000     0.76826570    -2.66733006     0.05686422
   25 C                    6.0000     1.17834781    -3.03133608    -1.23955635
   26 H                    1.0000     1.47259532    -2.27012658    -1.94775724
   27 C                    6.0000     1.21029126    -4.38642534    -1.61772522
   28 H                    1.0000     1.52586740    -4.66332063    -2.61368391
   29 C                    6.0000     0.83061873    -5.38105542    -0.70091130
   30 H                    1.0000     0.85261427    -6.42310223    -0.99008884
   31 C                    6.0000     0.41985991    -5.02086347     0.59451177
   32 H                    1.0000     0.12339052    -5.78439906     1.30108400
   33 C                    6.0000     0.39031880    -3.66752940     0.97375211
   34 H                    1.0000     0.06643722    -3.39394891     1.96796961
   35 C                    6.0000    -1.82400522    -0.95112571     0.68293062
   36 O                    8.0000    -1.81340037    -1.54408046     1.75601831
   37 N                    7.0000    -2.97660305    -0.66845436     0.09128787
   38 H                    1.0000    -2.97578957    -0.09715117    -0.74234455
   39 H                    1.0000    -3.82843091    -0.96638561     0.53316485

         Total SCF energy =   -929.350504647075

 Vector  129  Occ=0.000000D+00  E= 2.118860D-01

 Vector  130  Occ=0.000000D+00  E= 2.130332D-01

 Vector  131  Occ=0.000000D+00  E= 2.174957D-01

 Vector  132  Occ=0.000000D+00  E= 2.216579D-01

 Vector  133  Occ=0.000000D+00  E= 2.246756D-01

 Vector  134  Occ=0.000000D+00  E= 2.284596D-01

 Vector  135  Occ=0.000000D+00  E= 2.309221D-01

 Vector  136  Occ=0.000000D+00  E= 2.332618D-01

 Vector  137  Occ=0.000000D+00  E= 2.349213D-01

 Vector  138  Occ=0.000000D+00  E= 2.429737D-01

 Vector  139  Occ=0.000000D+00  E= 2.457133D-01

 Vector  140  Occ=0.000000D+00  E= 2.505869D-01

 Vector  141  Occ=0.000000D+00  E= 2.583525D-01

 Vector  142  Occ=0.000000D+00  E= 2.603466D-01

 Vector  143  Occ=0.000000D+00  E= 2.668109D-01

 Vector  144  Occ=0.000000D+00  E= 2.739868D-01

 Vector  145  Occ=0.000000D+00  E= 2.771449D-01

 Vector  146  Occ=0.000000D+00  E= 2.820470D-01

 Vector  147  Occ=0.000000D+00  E= 2.892713D-01

 Vector  148  Occ=0.000000D+00  E= 2.924599D-01

 Vector  149  Occ=0.000000D+00  E= 2.943357D-01

 Vector  150  Occ=0.000000D+00  E= 3.073267D-01

 Vector  151  Occ=0.000000D+00  E= 3.103409D-01

 Vector  152  Occ=0.000000D+00  E= 3.139277D-01

 Vector  153  Occ=0.000000D+00  E= 3.198601D-01

 Vector  154  Occ=0.000000D+00  E= 3.234033D-01

 Vector  155  Occ=0.000000D+00  E= 3.235660D-01

 Vector  156  Occ=0.000000D+00  E= 3.273030D-01

 Vector  157  Occ=0.000000D+00  E= 3.319248D-01

 Vector  158  Occ=0.000000D+00  E= 3.343472D-01

 Vector  159  Occ=0.000000D+00  E= 3.372583D-01

 Vector  160  Occ=0.000000D+00  E= 3.404854D-01

 Vector  161  Occ=0.000000D+00  E= 3.418267D-01

 Vector  162  Occ=0.000000D+00  E= 3.445849D-01

 Vector  163  Occ=0.000000D+00  E= 3.477265D-01

 Vector  164  Occ=0.000000D+00  E= 3.559051D-01

 Vector  165  Occ=0.000000D+00  E= 3.581619D-01

 Vector  166  Occ=0.000000D+00  E= 3.609166D-01

 Vector  167  Occ=0.000000D+00  E= 3.630831D-01

 Vector  168  Occ=0.000000D+00  E= 3.670323D-01

 Vector  169  Occ=0.000000D+00  E= 3.696286D-01

 Vector  170  Occ=0.000000D+00  E= 3.728750D-01

 Vector  171  Occ=0.000000D+00  E= 3.784872D-01

 Vector  172  Occ=0.000000D+00  E= 3.839535D-01

 Vector  173  Occ=0.000000D+00  E= 3.860249D-01

 Vector  174  Occ=0.000000D+00  E= 3.889978D-01

 Vector  175  Occ=0.000000D+00  E= 3.907449D-01

 Vector  176  Occ=0.000000D+00  E= 3.925951D-01

 Vector  177  Occ=0.000000D+00  E= 3.959050D-01

 Vector  178  Occ=0.000000D+00  E= 3.989328D-01

 Vector  179  Occ=0.000000D+00  E= 3.998836D-01

 Vector  180  Occ=0.000000D+00  E= 4.035689D-01

 Vector  181  Occ=0.000000D+00  E= 4.082920D-01

 Vector  182  Occ=0.000000D+00  E= 4.121857D-01

 Vector  183  Occ=0.000000D+00  E= 4.163774D-01

 Vector  184  Occ=0.000000D+00  E= 4.176992D-01

 Vector  185  Occ=0.000000D+00  E= 4.180013D-01

 Vector  186  Occ=0.000000D+00  E= 4.210097D-01

 Vector  187  Occ=0.000000D+00  E= 4.247357D-01

 Vector  188  Occ=0.000000D+00  E= 4.288040D-01

 Vector  189  Occ=0.000000D+00  E= 4.356934D-01

 Vector  190  Occ=0.000000D+00  E= 4.401483D-01

 Vector  191  Occ=0.000000D+00  E= 4.419152D-01

 Vector  192  Occ=0.000000D+00  E= 4.428109D-01

 Vector  193  Occ=0.000000D+00  E= 4.467435D-01

 Vector  194  Occ=0.000000D+00  E= 4.484507D-01

 Vector  195  Occ=0.000000D+00  E= 4.525766D-01

 Vector  196  Occ=0.000000D+00  E= 4.550856D-01

 Vector  197  Occ=0.000000D+00  E= 4.593113D-01

 Vector  198  Occ=0.000000D+00  E= 4.637496D-01

 Vector  199  Occ=0.000000D+00  E= 4.703310D-01

 Vector  200  Occ=0.000000D+00  E= 4.720266D-01

 Vector  201  Occ=0.000000D+00  E= 4.736562D-01

 Vector  202  Occ=0.000000D+00  E= 4.774647D-01

 Vector  203  Occ=0.000000D+00  E= 4.861431D-01

 Vector  204  Occ=0.000000D+00  E= 4.873484D-01

 Vector  205  Occ=0.000000D+00  E= 4.902296D-01

 Vector  206  Occ=0.000000D+00  E= 4.934473D-01

 Vector  207  Occ=0.000000D+00  E= 4.956677D-01

 Vector  208  Occ=0.000000D+00  E= 5.007843D-01

       Multipole analysis of the density wrt the origin
       ------------------------------------------------

     L   x y z        total         open         nuclear
     -   - - -        -----         ----         -------
     0   0 0 0      0.000000      0.000000    148.000000

     1   1 0 0      0.822734      0.000000      0.000000
     1   0 1 0      2.130017      0.000000     -0.000000
     1   0 0 1     -1.405580      0.000000      0.000000

     2   2 0 0    -85.616618      0.000000   1333.558073
     2   1 1 0      4.489077      0.000000      7.589033
     2   1 0 1     -4.071092      0.000000     -2.626824
     2   0 2 0    -71.993479      0.000000   5228.016527
     2   0 1 1     -1.283876      0.000000    -14.236720

 Total times  cpu:     5685.4s     wall:     5877.7s
