 Output coordinates in angstroms (scale by  1.889725989 to convert to a.u.)

  No.       Tag          Charge          X              Y              Z
 ---- ---------------- ---------- -------------- -------------- --------------
    1 H                    1.0000    -0.07478288     5.13822700     0.82730968
    2 C                    6.0000     0.15101393     5.01873516    -0.23069056
    3 H                    1.0000     1.04411765     5.58451040    -0.48715133
    4 H                    1.0000    -0.69075529     5.37512068    -0.82425938
    5 C                    6.0000     0.37791428     3.55649828    -0.52987031
    6 O                    8.0000    -0.34944738     2.96643106    -1.32190105
    7 N                    7.0000     1.38536176     2.96164297     0.10703293
    8 H                    1.0000     1.91276911     3.49106849     0.77968671
    9 C                    6.0000     1.66833538     1.53294472    -0.02676257
   10 H                    1.0000     1.83614811     1.31578258    -1.08224090
   11 C                    6.0000     2.95533858     1.20318566     0.74091752
   12 H                    1.0000     3.19068480     0.14464052     0.62113299
   13 H                    1.0000     3.78439458     1.79662516     0.35131555
   14 H                    1.0000     2.82188106     1.41766870     1.80210041
   15 C                    6.0000     0.47371532     0.68991239     0.45931397
   16 O                    8.0000     0.01002056     0.85827430     1.58427149
   17 N                    7.0000    -0.01586238    -0.21187242    -0.40007350
   18 H                    1.0000     0.42922292    -0.28787219    -1.29981131
   19 C                    6.0000    -1.23821122    -1.01280349    -0.19702982
   20 H                    1.0000    -1.39717615    -1.56055514    -1.12509569
   21 C                    6.0000    -1.04786551    -2.07779550     0.90409121
   22 H                    1.0000    -1.06265982    -1.59285769     1.88040799
   23 H                    1.0000    -1.88691632    -2.77467529     0.86600848
   24 C                    6.0000     0.25247634    -2.88533038     0.78471587
   25 H                    1.0000     1.09961794    -2.22072188     0.95174473
   26 H                    1.0000     0.25707264    -3.62998828     1.58075952
   27 S                   16.0000     0.48599985    -3.74283741    -0.79754374
   28 C                    6.0000     2.02976701    -4.62253545    -0.44085438
   29 H                    1.0000     2.32523207    -5.20494982    -1.31333355
   30 H                    1.0000     2.81464174    -3.90497109    -0.20176642
   31 H                    1.0000     1.88073511    -5.29414905     0.40525831
   32 C                    6.0000    -2.53565301    -0.19361489    -0.00375062
   33 O                    8.0000    -3.55952572    -0.73320697     0.39974047
   34 N                    7.0000    -2.55055678     1.09825851    -0.30928132
   35 H                    1.0000    -1.71627639     1.56049345    -0.64331287
   36 H                    1.0000    -3.40591282     1.60863249    -0.16916905

         Total SCF energy =  -1175.384410609827

 Vector  114  Occ=0.000000D+00  E= 1.894499D-01

 Vector  115  Occ=0.000000D+00  E= 1.942521D-01

 Vector  116  Occ=0.000000D+00  E= 1.960949D-01

 Vector  117  Occ=0.000000D+00  E= 2.028438D-01

 Vector  118  Occ=0.000000D+00  E= 2.041598D-01

 Vector  119  Occ=0.000000D+00  E= 2.065000D-01

 Vector  120  Occ=0.000000D+00  E= 2.133095D-01

 Vector  121  Occ=0.000000D+00  E= 2.173029D-01

 Vector  122  Occ=0.000000D+00  E= 2.201919D-01

 Vector  123  Occ=0.000000D+00  E= 2.263148D-01

 Vector  124  Occ=0.000000D+00  E= 2.296215D-01

 Vector  125  Occ=0.000000D+00  E= 2.339056D-01

 Vector  126  Occ=0.000000D+00  E= 2.380023D-01

 Vector  127  Occ=0.000000D+00  E= 2.405933D-01

 Vector  128  Occ=0.000000D+00  E= 2.438740D-01

 Vector  129  Occ=0.000000D+00  E= 2.504424D-01

 Vector  130  Occ=0.000000D+00  E= 2.511707D-01

 Vector  131  Occ=0.000000D+00  E= 2.539097D-01

 Vector  132  Occ=0.000000D+00  E= 2.591726D-01

 Vector  133  Occ=0.000000D+00  E= 2.610480D-01

 Vector  134  Occ=0.000000D+00  E= 2.724225D-01

 Vector  135  Occ=0.000000D+00  E= 2.773508D-01

 Vector  136  Occ=0.000000D+00  E= 2.816998D-01

 Vector  137  Occ=0.000000D+00  E= 2.854160D-01

 Vector  138  Occ=0.000000D+00  E= 2.908869D-01

 Vector  139  Occ=0.000000D+00  E= 2.954183D-01

 Vector  140  Occ=0.000000D+00  E= 3.056370D-01

 Vector  141  Occ=0.000000D+00  E= 3.095238D-01

 Vector  142  Occ=0.000000D+00  E= 3.109674D-01

 Vector  143  Occ=0.000000D+00  E= 3.127420D-01

 Vector  144  Occ=0.000000D+00  E= 3.194024D-01

 Vector  145  Occ=0.000000D+00  E= 3.236852D-01

 Vector  146  Occ=0.000000D+00  E= 3.267899D-01

 Vector  147  Occ=0.000000D+00  E= 3.295193D-01

 Vector  148  Occ=0.000000D+00  E= 3.384510D-01

 Vector  149  Occ=0.000000D+00  E= 3.428210D-01

 Vector  150  Occ=0.000000D+00  E= 3.448252D-01

 Vector  151  Occ=0.000000D+00  E= 3.485269D-01

 Vector  152  Occ=0.000000D+00  E= 3.512994D-01

 Vector  153  Occ=0.000000D+00  E= 3.564491D-01

 Vector  154  Occ=0.000000D+00  E= 3.587863D-01

 Vector  155  Occ=0.000000D+00  E= 3.670405D-01

 Vector  156  Occ=0.000000D+00  E= 3.682902D-01

 Vector  157  Occ=0.000000D+00  E= 3.742951D-01

 Vector  158  Occ=0.000000D+00  E= 3.791689D-01

 Vector  159  Occ=0.000000D+00  E= 3.821457D-01

 Vector  160  Occ=0.000000D+00  E= 3.847271D-01

 Vector  161  Occ=0.000000D+00  E= 3.898981D-01

 Vector  162  Occ=0.000000D+00  E= 3.924941D-01

 Vector  163  Occ=0.000000D+00  E= 3.938241D-01

 Vector  164  Occ=0.000000D+00  E= 3.981938D-01

 Vector  165  Occ=0.000000D+00  E= 3.990744D-01

 Vector  166  Occ=0.000000D+00  E= 4.021229D-01

 Vector  167  Occ=0.000000D+00  E= 4.085454D-01

 Vector  168  Occ=0.000000D+00  E= 4.123632D-01

 Vector  169  Occ=0.000000D+00  E= 4.158912D-01

 Vector  170  Occ=0.000000D+00  E= 4.175181D-01

 Vector  171  Occ=0.000000D+00  E= 4.198210D-01

 Vector  172  Occ=0.000000D+00  E= 4.227658D-01

 Vector  173  Occ=0.000000D+00  E= 4.292185D-01

 Vector  174  Occ=0.000000D+00  E= 4.342737D-01

 Vector  175  Occ=0.000000D+00  E= 4.351580D-01

 Vector  176  Occ=0.000000D+00  E= 4.423207D-01

 Vector  177  Occ=0.000000D+00  E= 4.464760D-01

 Vector  178  Occ=0.000000D+00  E= 4.495852D-01

 Vector  179  Occ=0.000000D+00  E= 4.500871D-01

 Vector  180  Occ=0.000000D+00  E= 4.559735D-01

 Vector  181  Occ=0.000000D+00  E= 4.561251D-01

 Vector  182  Occ=0.000000D+00  E= 4.665684D-01

 Vector  183  Occ=0.000000D+00  E= 4.687909D-01

 Vector  184  Occ=0.000000D+00  E= 4.703625D-01

 Vector  185  Occ=0.000000D+00  E= 4.723309D-01

 Vector  186  Occ=0.000000D+00  E= 4.747487D-01

 Vector  187  Occ=0.000000D+00  E= 4.811939D-01

 Vector  188  Occ=0.000000D+00  E= 4.863356D-01

 Vector  189  Occ=0.000000D+00  E= 4.886530D-01

 Vector  190  Occ=0.000000D+00  E= 4.919362D-01

 Vector  191  Occ=0.000000D+00  E= 4.947461D-01

 Vector  192  Occ=0.000000D+00  E= 4.988379D-01

 Vector  193  Occ=0.000000D+00  E= 5.005566D-01

       Multipole analysis of the density wrt the origin
       ------------------------------------------------

     L   x y z        total         open         nuclear
     -   - - -        -----         ----         -------
     0   0 0 0     -0.000000      0.000000    140.000000

     1   1 0 0      3.202805      0.000000     -0.000000
     1   0 1 0      1.247076      0.000000      0.000000
     1   0 0 1     -0.189552      0.000000      0.000000

     2   2 0 0    -87.379235      0.000000   1416.229370
     2   1 1 0     -3.438452      0.000000    -23.939991
     2   1 0 1      2.667614      0.000000     10.065267
     2   0 2 0    -66.706790      0.000000   3749.264691
     2   0 1 1      1.102845      0.000000     -9.150644

 Total times  cpu:     4133.3s     wall:     4199.9s
