 Output coordinates in angstroms (scale by  1.889725989 to convert to a.u.)

  No.       Tag          Charge          X              Y              Z
 ---- ---------------- ---------- -------------- -------------- --------------
    1 H                    1.0000    -3.40723080    -4.93911629     1.15871347
    2 C                    6.0000    -3.14551650    -3.89046576     1.28835792
    3 H                    1.0000    -3.37366897    -3.58205079     2.30763986
    4 H                    1.0000    -3.70797769    -3.27583654     0.58809558
    5 C                    6.0000    -1.66629451    -3.70961972     1.04161512
    6 O                    8.0000    -0.94404770    -3.26850789     1.92550589
    7 N                    7.0000    -1.21575670    -4.03739752    -0.16750580
    8 H                    1.0000    -1.88139947    -4.38149098    -0.83963629
    9 C                    6.0000     0.18501532    -3.94767617    -0.59699131
   10 H                    1.0000     0.80799276    -4.33093797     0.21287442
   11 C                    6.0000     0.37231818    -4.87779966    -1.80509806
   12 H                    1.0000    -0.22768010    -4.52684295    -2.64544886
   13 H                    1.0000     1.42224440    -4.88589223    -2.10114950
   14 H                    1.0000     0.07462316    -5.89396946    -1.54402984
   15 C                    6.0000     0.65538397    -2.49434553    -0.86034352
   16 O                    8.0000     1.12318916    -2.16586597    -1.95096925
   17 N                    7.0000     0.50050858    -1.60674004     0.12541513
   18 H                    1.0000     0.11148065    -1.94778159     0.99937905
   19 C                    6.0000     0.85689047    -0.18373340     0.04859033
   20 H                    1.0000     0.55521046     0.19032816    -0.93088766
   21 C                    6.0000     0.04704275     0.59127236     1.09886684
   22 H                    1.0000    -0.99980942     0.29542099     1.01812969
   23 H                    1.0000     0.38858447     0.31038034     2.09635816
   24 C                    6.0000     0.10393699     2.08213108     0.95971831
   25 C                    6.0000     0.92737697     2.90277407     1.64989270
   26 H                    1.0000     1.64794348     2.56593613     2.38784739
   27 N                    7.0000     0.73303690     4.20785526     1.24357751
   28 H                    1.0000     1.25290038     4.98761988     1.61935681
   29 C                    6.0000    -0.22365095     4.29486471     0.25467574
   30 C                    6.0000    -0.75456614     5.37049723    -0.47284110
   31 H                    1.0000    -0.40974265     6.37604906    -0.28903611
   32 C                    6.0000    -1.73749296     5.11735064    -1.44452709
   33 H                    1.0000    -2.15885144     5.93353977    -2.01570950
   34 C                    6.0000    -2.17406013     3.80013476    -1.67431708
   35 H                    1.0000    -2.93132983     3.61079232    -2.42414976
   36 C                    6.0000    -1.63368371     2.72777552    -0.93775753
   37 H                    1.0000    -1.97664229     1.72120664    -1.12226089
   38 C                    6.0000    -0.64497479     2.94638106     0.04812294
   39 C                    6.0000     2.37976348     0.04258213     0.15861792
   40 O                    8.0000     2.90546776     0.52575639     1.15517983
   41 N                    7.0000     3.13004846    -0.35504715    -0.85999998
   42 H                    1.0000     4.12562508    -0.23203511    -0.80050858
   43 H                    1.0000     2.69106276    -0.81981336    -1.64320999

         Total SCF energy =  -1060.131926563173

 Vector  153  Occ=0.000000D+00  E= 2.434230D-01

 Vector  154  Occ=0.000000D+00  E= 2.476468D-01

 Vector  155  Occ=0.000000D+00  E= 2.504305D-01

 Vector  156  Occ=0.000000D+00  E= 2.522696D-01

 Vector  157  Occ=0.000000D+00  E= 2.587855D-01

 Vector  158  Occ=0.000000D+00  E= 2.591977D-01

 Vector  159  Occ=0.000000D+00  E= 2.704985D-01

 Vector  160  Occ=0.000000D+00  E= 2.742341D-01

 Vector  161  Occ=0.000000D+00  E= 2.792176D-01

 Vector  162  Occ=0.000000D+00  E= 2.793421D-01

 Vector  163  Occ=0.000000D+00  E= 2.865833D-01

 Vector  164  Occ=0.000000D+00  E= 2.914560D-01

 Vector  165  Occ=0.000000D+00  E= 2.991308D-01

 Vector  166  Occ=0.000000D+00  E= 3.008774D-01

 Vector  167  Occ=0.000000D+00  E= 3.020685D-01

 Vector  168  Occ=0.000000D+00  E= 3.061873D-01

 Vector  169  Occ=0.000000D+00  E= 3.113376D-01

 Vector  170  Occ=0.000000D+00  E= 3.146858D-01

 Vector  171  Occ=0.000000D+00  E= 3.175269D-01

 Vector  172  Occ=0.000000D+00  E= 3.196047D-01

 Vector  173  Occ=0.000000D+00  E= 3.238483D-01

 Vector  174  Occ=0.000000D+00  E= 3.277854D-01

 Vector  175  Occ=0.000000D+00  E= 3.320736D-01

 Vector  176  Occ=0.000000D+00  E= 3.363753D-01

 Vector  177  Occ=0.000000D+00  E= 3.368610D-01

 Vector  178  Occ=0.000000D+00  E= 3.387727D-01

 Vector  179  Occ=0.000000D+00  E= 3.425192D-01

 Vector  180  Occ=0.000000D+00  E= 3.449832D-01

 Vector  181  Occ=0.000000D+00  E= 3.471343D-01

 Vector  182  Occ=0.000000D+00  E= 3.523625D-01

 Vector  183  Occ=0.000000D+00  E= 3.546559D-01

 Vector  184  Occ=0.000000D+00  E= 3.578920D-01

 Vector  185  Occ=0.000000D+00  E= 3.609105D-01

 Vector  186  Occ=0.000000D+00  E= 3.627714D-01

 Vector  187  Occ=0.000000D+00  E= 3.679503D-01

 Vector  188  Occ=0.000000D+00  E= 3.703322D-01

 Vector  189  Occ=0.000000D+00  E= 3.741371D-01

 Vector  190  Occ=0.000000D+00  E= 3.773630D-01

 Vector  191  Occ=0.000000D+00  E= 3.817987D-01

 Vector  192  Occ=0.000000D+00  E= 3.832101D-01

 Vector  193  Occ=0.000000D+00  E= 3.848324D-01

 Vector  194  Occ=0.000000D+00  E= 3.875684D-01

 Vector  195  Occ=0.000000D+00  E= 3.896565D-01

 Vector  196  Occ=0.000000D+00  E= 3.921627D-01

 Vector  197  Occ=0.000000D+00  E= 3.961666D-01

 Vector  198  Occ=0.000000D+00  E= 3.970016D-01

 Vector  199  Occ=0.000000D+00  E= 4.015223D-01

 Vector  200  Occ=0.000000D+00  E= 4.042228D-01

 Vector  201  Occ=0.000000D+00  E= 4.078240D-01

 Vector  202  Occ=0.000000D+00  E= 4.102363D-01

 Vector  203  Occ=0.000000D+00  E= 4.146797D-01

 Vector  204  Occ=0.000000D+00  E= 4.167334D-01

 Vector  205  Occ=0.000000D+00  E= 4.181073D-01

 Vector  206  Occ=0.000000D+00  E= 4.193060D-01

 Vector  207  Occ=0.000000D+00  E= 4.228085D-01

 Vector  208  Occ=0.000000D+00  E= 4.250282D-01

 Vector  209  Occ=0.000000D+00  E= 4.276985D-01

 Vector  210  Occ=0.000000D+00  E= 4.325096D-01

 Vector  211  Occ=0.000000D+00  E= 4.375957D-01

 Vector  212  Occ=0.000000D+00  E= 4.414380D-01

 Vector  213  Occ=0.000000D+00  E= 4.420116D-01

 Vector  214  Occ=0.000000D+00  E= 4.434818D-01

 Vector  215  Occ=0.000000D+00  E= 4.469352D-01

 Vector  216  Occ=0.000000D+00  E= 4.506821D-01

 Vector  217  Occ=0.000000D+00  E= 4.547679D-01

 Vector  218  Occ=0.000000D+00  E= 4.585196D-01

 Vector  219  Occ=0.000000D+00  E= 4.634289D-01

 Vector  220  Occ=0.000000D+00  E= 4.661372D-01

 Vector  221  Occ=0.000000D+00  E= 4.683743D-01

 Vector  222  Occ=0.000000D+00  E= 4.700169D-01

 Vector  223  Occ=0.000000D+00  E= 4.713772D-01

 Vector  224  Occ=0.000000D+00  E= 4.806896D-01

 Vector  225  Occ=0.000000D+00  E= 4.820669D-01

 Vector  226  Occ=0.000000D+00  E= 4.851904D-01

 Vector  227  Occ=0.000000D+00  E= 4.890865D-01

 Vector  228  Occ=0.000000D+00  E= 4.925786D-01

 Vector  229  Occ=0.000000D+00  E= 4.953467D-01

 Vector  230  Occ=0.000000D+00  E= 4.974985D-01

 Vector  231  Occ=0.000000D+00  E= 4.980158D-01

 Vector  232  Occ=0.000000D+00  E= 5.021820D-01

       Multipole analysis of the density wrt the origin
       ------------------------------------------------

     L   x y z        total         open         nuclear
     -   - - -        -----         ----         -------
     0   0 0 0     -0.000000      0.000000    168.000000

     1   1 0 0     -1.158749      0.000000     -0.000000
     1   0 1 0     -1.433218      0.000000     -0.000000
     1   0 0 1     -0.576866      0.000000     -0.000000

     2   2 0 0    -96.641178      0.000000   1612.404716
     2   1 1 0     12.131873      0.000000     30.788769
     2   1 0 1      0.177819      0.000000     -5.558753
     2   0 2 0    -77.272321      0.000000   6518.494269
     2   0 1 1      7.241504      0.000000     14.869335

 Total times  cpu:    27209.5s     wall:    27343.6s
