 Output coordinates in angstroms (scale by  1.889725989 to convert to a.u.)

  No.       Tag          Charge          X              Y              Z
 ---- ---------------- ---------- -------------- -------------- --------------
    1 H                    1.0000    -1.38701634    -6.02456916    -0.12502843
    2 C                    6.0000    -0.94970898    -5.23504631    -0.73546184
    3 H                    1.0000    -1.70822162    -4.82385617    -1.39923307
    4 H                    1.0000    -0.12375875    -5.63776384    -1.31774252
    5 C                    6.0000    -0.43576451    -4.14300712     0.17298876
    6 O                    8.0000    -0.55041359    -4.24894226     1.38588750
    7 N                    7.0000     0.12657651    -3.09323237    -0.42048790
    8 H                    1.0000     0.15085746    -3.06014564    -1.42874863
    9 C                    6.0000     0.66132490    -1.92521026     0.28132584
   10 H                    1.0000     0.06527795    -1.74833387     1.17781386
   11 C                    6.0000     2.10744747    -2.21905094     0.70785738
   12 H                    1.0000     2.13029741    -3.09919207     1.35204872
   13 H                    1.0000     2.72625045    -2.40060035    -0.17194754
   14 H                    1.0000     2.51194396    -1.37087565     1.26074007
   15 C                    6.0000     0.57648772    -0.66567200    -0.59984101
   16 O                    8.0000     0.44657524    -0.76065704    -1.82027150
   17 N                    7.0000     0.66127777     0.51414965     0.02041743
   18 H                    1.0000     0.81010885     0.52426271     1.02067791
   19 C                    6.0000     0.61439826     1.82225482    -0.64075516
   20 H                    1.0000     1.11312946     1.72374858    -1.60661007
   21 C                    6.0000    -0.85073796     2.23800392    -0.90980077
   22 H                    1.0000    -0.82474956     3.02184724    -1.66868103
   23 H                    1.0000    -1.38238937     1.39261109    -1.34954247
   24 C                    6.0000    -1.66863794     2.78162325     0.28365163
   25 H                    1.0000    -1.16998443     3.65911098     0.69491428
   26 C                    6.0000    -3.04746496     3.21702572    -0.21623910
   27 H                    1.0000    -3.61886328     3.64871539     0.60573292
   28 H                    1.0000    -2.93894427     3.97133384    -0.99556671
   29 H                    1.0000    -3.58902072     2.35874061    -0.61767032
   30 C                    6.0000    -1.88108310     1.76366123     1.40517264
   31 H                    1.0000    -2.56660004     2.17050630     2.14944855
   32 H                    1.0000    -2.29467832     0.83922161     1.00182244
   33 H                    1.0000    -0.93512013     1.55973117     1.90326157
   34 C                    6.0000     1.38567508     2.87814826     0.16742805
   35 O                    8.0000     1.61342543     2.71998068     1.36158122
   36 N                    7.0000     1.78415906     3.97484777    -0.46123298
   37 H                    1.0000     1.59203517     4.09780378    -1.44111319
   38 H                    1.0000     2.28704031     4.66791358     0.06901153

         Total SCF energy =   -816.894254968031

 Vector  111  Occ=0.000000D+00  E= 1.948988D-01

 Vector  112  Occ=0.000000D+00  E= 1.973034D-01

 Vector  113  Occ=0.000000D+00  E= 2.016765D-01

 Vector  114  Occ=0.000000D+00  E= 2.030578D-01

 Vector  115  Occ=0.000000D+00  E= 2.066661D-01

 Vector  116  Occ=0.000000D+00  E= 2.078718D-01

 Vector  117  Occ=0.000000D+00  E= 2.096501D-01

 Vector  118  Occ=0.000000D+00  E= 2.137980D-01

 Vector  119  Occ=0.000000D+00  E= 2.197847D-01

 Vector  120  Occ=0.000000D+00  E= 2.236511D-01

 Vector  121  Occ=0.000000D+00  E= 2.258226D-01

 Vector  122  Occ=0.000000D+00  E= 2.290492D-01

 Vector  123  Occ=0.000000D+00  E= 2.332170D-01

 Vector  124  Occ=0.000000D+00  E= 2.376400D-01

 Vector  125  Occ=0.000000D+00  E= 2.418216D-01

 Vector  126  Occ=0.000000D+00  E= 2.427622D-01

 Vector  127  Occ=0.000000D+00  E= 2.491253D-01

 Vector  128  Occ=0.000000D+00  E= 2.518933D-01

 Vector  129  Occ=0.000000D+00  E= 2.586192D-01

 Vector  130  Occ=0.000000D+00  E= 2.638235D-01

 Vector  131  Occ=0.000000D+00  E= 2.670876D-01

 Vector  132  Occ=0.000000D+00  E= 2.725651D-01

 Vector  133  Occ=0.000000D+00  E= 2.811455D-01

 Vector  134  Occ=0.000000D+00  E= 2.914606D-01

 Vector  135  Occ=0.000000D+00  E= 2.948450D-01

 Vector  136  Occ=0.000000D+00  E= 2.994543D-01

 Vector  137  Occ=0.000000D+00  E= 3.055851D-01

 Vector  138  Occ=0.000000D+00  E= 3.073049D-01

 Vector  139  Occ=0.000000D+00  E= 3.085219D-01

 Vector  140  Occ=0.000000D+00  E= 3.150694D-01

 Vector  141  Occ=0.000000D+00  E= 3.194569D-01

 Vector  142  Occ=0.000000D+00  E= 3.257541D-01

 Vector  143  Occ=0.000000D+00  E= 3.284818D-01

 Vector  144  Occ=0.000000D+00  E= 3.344910D-01

 Vector  145  Occ=0.000000D+00  E= 3.407770D-01

 Vector  146  Occ=0.000000D+00  E= 3.439395D-01

 Vector  147  Occ=0.000000D+00  E= 3.484143D-01

 Vector  148  Occ=0.000000D+00  E= 3.515325D-01

 Vector  149  Occ=0.000000D+00  E= 3.553989D-01

 Vector  150  Occ=0.000000D+00  E= 3.644627D-01

 Vector  151  Occ=0.000000D+00  E= 3.656152D-01

 Vector  152  Occ=0.000000D+00  E= 3.700547D-01

 Vector  153  Occ=0.000000D+00  E= 3.712997D-01

 Vector  154  Occ=0.000000D+00  E= 3.758863D-01

 Vector  155  Occ=0.000000D+00  E= 3.769673D-01

 Vector  156  Occ=0.000000D+00  E= 3.797736D-01

 Vector  157  Occ=0.000000D+00  E= 3.849093D-01

 Vector  158  Occ=0.000000D+00  E= 3.870527D-01

 Vector  159  Occ=0.000000D+00  E= 3.925330D-01

 Vector  160  Occ=0.000000D+00  E= 3.957569D-01

 Vector  161  Occ=0.000000D+00  E= 3.970098D-01

 Vector  162  Occ=0.000000D+00  E= 4.007779D-01

 Vector  163  Occ=0.000000D+00  E= 4.038800D-01

 Vector  164  Occ=0.000000D+00  E= 4.073657D-01

 Vector  165  Occ=0.000000D+00  E= 4.152927D-01

 Vector  166  Occ=0.000000D+00  E= 4.183063D-01

 Vector  167  Occ=0.000000D+00  E= 4.200827D-01

 Vector  168  Occ=0.000000D+00  E= 4.214925D-01

 Vector  169  Occ=0.000000D+00  E= 4.276861D-01

 Vector  170  Occ=0.000000D+00  E= 4.325132D-01

 Vector  171  Occ=0.000000D+00  E= 4.356571D-01

 Vector  172  Occ=0.000000D+00  E= 4.367961D-01

 Vector  173  Occ=0.000000D+00  E= 4.374393D-01

 Vector  174  Occ=0.000000D+00  E= 4.442383D-01

 Vector  175  Occ=0.000000D+00  E= 4.458551D-01

 Vector  176  Occ=0.000000D+00  E= 4.491596D-01

 Vector  177  Occ=0.000000D+00  E= 4.543439D-01

 Vector  178  Occ=0.000000D+00  E= 4.584949D-01

 Vector  179  Occ=0.000000D+00  E= 4.599343D-01

 Vector  180  Occ=0.000000D+00  E= 4.649629D-01

 Vector  181  Occ=0.000000D+00  E= 4.679528D-01

 Vector  182  Occ=0.000000D+00  E= 4.703537D-01

 Vector  183  Occ=0.000000D+00  E= 4.734157D-01

 Vector  184  Occ=0.000000D+00  E= 4.776059D-01

 Vector  185  Occ=0.000000D+00  E= 4.818655D-01

 Vector  186  Occ=0.000000D+00  E= 4.828450D-01

 Vector  187  Occ=0.000000D+00  E= 4.856792D-01

 Vector  188  Occ=0.000000D+00  E= 4.933974D-01

 Vector  189  Occ=0.000000D+00  E= 4.977108D-01

 Vector  190  Occ=0.000000D+00  E= 5.010404D-01

       Multipole analysis of the density wrt the origin
       ------------------------------------------------

     L   x y z        total         open         nuclear
     -   - - -        -----         ----         -------
     0   0 0 0      0.000000      0.000000    132.000000

     1   1 0 0      0.303368      0.000000     -0.000000
     1   0 1 0      1.733798      0.000000     -0.000000
     1   0 0 1     -1.487789      0.000000      0.000000

     2   2 0 0    -76.564339      0.000000   1014.295071
     2   1 1 0      1.191926      0.000000    -55.833647
     2   1 0 1     -1.413759      0.000000      1.578855
     2   0 2 0    -68.983833      0.000000   4164.549749
     2   0 1 1      1.990963      0.000000      8.494146

 Total times  cpu:     4628.5s     wall:     4927.5s
