 Output coordinates in angstroms (scale by  1.889725989 to convert to a.u.)

  No.       Tag          Charge          X              Y              Z
 ---- ---------------- ---------- -------------- -------------- --------------
    1 H                    1.0000     1.56162841     3.52260358    -1.57679772
    2 C                    6.0000     1.64812200     3.62960814    -0.49672417
    3 H                    1.0000     1.26920568     4.60270676    -0.18756482
    4 H                    1.0000     2.69464022     3.53871341    -0.20655223
    5 C                    6.0000     0.85302973     2.53993470     0.17968848
    6 O                    8.0000     1.42106273     1.72602293     0.90256615
    7 N                    7.0000    -0.45842319     2.51837848    -0.06798181
    8 H                    1.0000    -0.82276657     3.21862439    -0.69306066
    9 C                    6.0000    -1.41868302     1.54437586     0.46809931
   10 H                    1.0000    -1.26646693     1.47412301     1.54700607
   11 C                    6.0000    -2.83414181     2.08997395     0.23085863
   12 H                    1.0000    -3.02590364     2.18706687    -0.83917425
   13 H                    1.0000    -3.56658224     1.40278306     0.65754434
   14 H                    1.0000    -2.94541364     3.06409255     0.70925861
   15 C                    6.0000    -1.20736980     0.12715928    -0.11454027
   16 O                    8.0000    -2.00013817    -0.37558927    -0.90887158
   17 N                    7.0000    -0.09278076    -0.49664655     0.26581556
   18 H                    1.0000     0.49987468     0.01990022     0.90351217
   19 C                    6.0000     0.50295387    -1.68976939    -0.35293734
   20 H                    1.0000     0.37830195    -1.60601522    -1.43323366
   21 C                    6.0000     2.01373163    -1.70087856    -0.06986111
   22 H                    1.0000     2.18761156    -1.83656292     0.99877940
   23 H                    1.0000     2.47329888    -2.53133970    -0.60868320
   24 O                    8.0000     2.60988871    -0.48621413    -0.49867116
   25 H                    1.0000     2.34721245     0.23256002     0.09715928
   26 C                    6.0000    -0.16893047    -3.01034986     0.06337581
   27 O                    8.0000     0.48675415    -3.96757314     0.45604142
   28 N                    7.0000    -1.49158795    -3.08109517     0.02803049
   29 H                    1.0000    -1.93812831    -3.93912779     0.30647567
   30 H                    1.0000    -2.01978120    -2.28808150    -0.31199335

         Total SCF energy =   -774.650419355941

 Vector   81  Occ=0.000000D+00  E= 1.466968D-01

 Vector   82  Occ=0.000000D+00  E= 1.490135D-01

 Vector   83  Occ=0.000000D+00  E= 1.521408D-01

 Vector   84  Occ=0.000000D+00  E= 1.539364D-01

 Vector   85  Occ=0.000000D+00  E= 1.600339D-01

 Vector   86  Occ=0.000000D+00  E= 1.609367D-01

 Vector   87  Occ=0.000000D+00  E= 1.675811D-01

 Vector   88  Occ=0.000000D+00  E= 1.700379D-01

 Vector   89  Occ=0.000000D+00  E= 1.707850D-01

 Vector   90  Occ=0.000000D+00  E= 1.763277D-01

 Vector   91  Occ=0.000000D+00  E= 1.764773D-01

 Vector   92  Occ=0.000000D+00  E= 1.804573D-01

 Vector   93  Occ=0.000000D+00  E= 1.840437D-01

 Vector   94  Occ=0.000000D+00  E= 1.887180D-01

 Vector   95  Occ=0.000000D+00  E= 1.913372D-01

 Vector   96  Occ=0.000000D+00  E= 1.921365D-01

 Vector   97  Occ=0.000000D+00  E= 1.969308D-01

 Vector   98  Occ=0.000000D+00  E= 2.010147D-01

 Vector   99  Occ=0.000000D+00  E= 2.057298D-01

 Vector  100  Occ=0.000000D+00  E= 2.106922D-01

 Vector  101  Occ=0.000000D+00  E= 2.127692D-01

 Vector  102  Occ=0.000000D+00  E= 2.241857D-01

 Vector  103  Occ=0.000000D+00  E= 2.288143D-01

 Vector  104  Occ=0.000000D+00  E= 2.309745D-01

 Vector  105  Occ=0.000000D+00  E= 2.381134D-01

 Vector  106  Occ=0.000000D+00  E= 2.410303D-01

 Vector  107  Occ=0.000000D+00  E= 2.482132D-01

 Vector  108  Occ=0.000000D+00  E= 2.534385D-01

 Vector  109  Occ=0.000000D+00  E= 2.572567D-01

 Vector  110  Occ=0.000000D+00  E= 2.633622D-01

 Vector  111  Occ=0.000000D+00  E= 2.699312D-01

 Vector  112  Occ=0.000000D+00  E= 2.818951D-01

 Vector  113  Occ=0.000000D+00  E= 2.901438D-01

 Vector  114  Occ=0.000000D+00  E= 2.951404D-01

 Vector  115  Occ=0.000000D+00  E= 2.994248D-01

 Vector  116  Occ=0.000000D+00  E= 3.109347D-01

 Vector  117  Occ=0.000000D+00  E= 3.124851D-01

 Vector  118  Occ=0.000000D+00  E= 3.194092D-01

 Vector  119  Occ=0.000000D+00  E= 3.227885D-01

 Vector  120  Occ=0.000000D+00  E= 3.271831D-01

 Vector  121  Occ=0.000000D+00  E= 3.304789D-01

 Vector  122  Occ=0.000000D+00  E= 3.372251D-01

 Vector  123  Occ=0.000000D+00  E= 3.382443D-01

 Vector  124  Occ=0.000000D+00  E= 3.435838D-01

 Vector  125  Occ=0.000000D+00  E= 3.469972D-01

 Vector  126  Occ=0.000000D+00  E= 3.521569D-01

 Vector  127  Occ=0.000000D+00  E= 3.571223D-01

 Vector  128  Occ=0.000000D+00  E= 3.610609D-01

 Vector  129  Occ=0.000000D+00  E= 3.693185D-01

 Vector  130  Occ=0.000000D+00  E= 3.731442D-01

 Vector  131  Occ=0.000000D+00  E= 3.736082D-01

 Vector  132  Occ=0.000000D+00  E= 3.788843D-01

 Vector  133  Occ=0.000000D+00  E= 3.808907D-01

 Vector  134  Occ=0.000000D+00  E= 3.842411D-01

 Vector  135  Occ=0.000000D+00  E= 3.864510D-01

 Vector  136  Occ=0.000000D+00  E= 3.904159D-01

 Vector  137  Occ=0.000000D+00  E= 3.926134D-01

 Vector  138  Occ=0.000000D+00  E= 3.996319D-01

 Vector  139  Occ=0.000000D+00  E= 4.018687D-01

 Vector  140  Occ=0.000000D+00  E= 4.088212D-01

 Vector  141  Occ=0.000000D+00  E= 4.140181D-01

 Vector  142  Occ=0.000000D+00  E= 4.169813D-01

 Vector  143  Occ=0.000000D+00  E= 4.184800D-01

 Vector  144  Occ=0.000000D+00  E= 4.224793D-01

 Vector  145  Occ=0.000000D+00  E= 4.271215D-01

 Vector  146  Occ=0.000000D+00  E= 4.350856D-01

 Vector  147  Occ=0.000000D+00  E= 4.364159D-01

 Vector  148  Occ=0.000000D+00  E= 4.431920D-01

 Vector  149  Occ=0.000000D+00  E= 4.472781D-01

 Vector  150  Occ=0.000000D+00  E= 4.502111D-01

 Vector  151  Occ=0.000000D+00  E= 4.588280D-01

 Vector  152  Occ=0.000000D+00  E= 4.636922D-01

 Vector  153  Occ=0.000000D+00  E= 4.674820D-01

 Vector  154  Occ=0.000000D+00  E= 4.728126D-01

 Vector  155  Occ=0.000000D+00  E= 4.792077D-01

 Vector  156  Occ=0.000000D+00  E= 4.851477D-01

 Vector  157  Occ=0.000000D+00  E= 4.894758D-01

 Vector  158  Occ=0.000000D+00  E= 4.939356D-01

 Vector  159  Occ=0.000000D+00  E= 4.964188D-01

 Vector  160  Occ=0.000000D+00  E= 5.056767D-01

       Multipole analysis of the density wrt the origin
       ------------------------------------------------

     L   x y z        total         open         nuclear
     -   - - -        -----         ----         -------
     0   0 0 0     -0.000000      0.000000    116.000000

     1   1 0 0     -1.309541      0.000000      0.000000
     1   0 1 0      3.016280      0.000000      0.000000
     1   0 0 1      0.026018      0.000000     -0.000000

     2   2 0 0    -70.333331      0.000000   1093.235965
     2   1 1 0      3.635471      0.000000     -4.387360
     2   1 0 1     -3.678647      0.000000    -10.046675
     2   0 2 0    -64.611993      0.000000   2216.009056
     2   0 1 1     -0.811052      0.000000     -7.639791

 Total times  cpu:     3359.5s     wall:     3420.9s
