 Output coordinates in angstroms (scale by  1.889725989 to convert to a.u.)

  No.       Tag          Charge          X              Y              Z
 ---- ---------------- ---------- -------------- -------------- --------------
    1 H                    1.0000     3.29039087    -1.63653328    -1.67406802
    2 C                    6.0000     2.82706544    -2.07675913    -0.79150145
    3 H                    1.0000     3.17172498    -1.54827205     0.09650317
    4 H                    1.0000     3.09087097    -3.13008968    -0.72695393
    5 C                    6.0000     1.32840545    -1.93404032    -0.90363779
    6 O                    8.0000     0.83327142    -1.34267372    -1.85261926
    7 N                    7.0000     0.59862276    -2.46073142     0.07941904
    8 H                    1.0000     1.08000502    -2.92706325     0.83006193
    9 C                    6.0000    -0.87115888    -2.41630400     0.12098971
   10 H                    1.0000    -1.25055869    -2.80004793    -0.82824019
   11 C                    6.0000    -1.33962650    -3.35257640     1.24142046
   12 H                    1.0000    -0.96252248    -4.36084062     1.06786406
   13 H                    1.0000    -0.98348031    -2.99095553     2.20746820
   14 H                    1.0000    -2.43035638    -3.38485959     1.25714077
   15 C                    6.0000    -1.46002418    -0.99538036     0.29223122
   16 O                    8.0000    -2.66353313    -0.79786813     0.14962293
   17 N                    7.0000    -0.61926421     0.00000316     0.58511228
   18 H                    1.0000     0.36119542    -0.24222425     0.65042533
   19 C                    6.0000    -0.94707151     1.42182445     0.73235558
   20 H                    1.0000    -1.85553447     1.50069137     1.33128633
   21 C                    6.0000     0.20787654     2.07675567     1.51609413
   22 H                    1.0000     0.03067610     3.14740406     1.62208004
   23 H                    1.0000     0.25459668     1.64485995     2.51512582
   24 C                    6.0000     1.54875743     1.84779531     0.84163391
   25 O                    8.0000     2.24768370     0.89014206     1.12926615
   26 N                    7.0000     1.90701126     2.66326647    -0.11756106
   27 H                    1.0000     1.23136531     3.33784289    -0.45538824
   28 H                    1.0000     2.76420184     2.46225709    -0.59801244
   29 C                    6.0000    -1.24901302     2.14113901    -0.60876742
   30 O                    8.0000    -0.82783270     3.27524167    -0.82801224
   31 N                    7.0000    -1.93969131     1.50041321    -1.54126350
   32 H                    1.0000    -2.29964387     0.57652960    -1.34482463
   33 H                    1.0000    -2.10765931     1.95718091    -2.42138623

         Total SCF energy =   -867.599485349733

 Vector   97  Occ=0.000000D+00  E= 1.720880D-01

 Vector   98  Occ=0.000000D+00  E= 1.723610D-01

 Vector   99  Occ=0.000000D+00  E= 1.749979D-01

 Vector  100  Occ=0.000000D+00  E= 1.793962D-01

 Vector  101  Occ=0.000000D+00  E= 1.816480D-01

 Vector  102  Occ=0.000000D+00  E= 1.833473D-01

 Vector  103  Occ=0.000000D+00  E= 1.874031D-01

 Vector  104  Occ=0.000000D+00  E= 1.890155D-01

 Vector  105  Occ=0.000000D+00  E= 1.931847D-01

 Vector  106  Occ=0.000000D+00  E= 1.938539D-01

 Vector  107  Occ=0.000000D+00  E= 1.991099D-01

 Vector  108  Occ=0.000000D+00  E= 2.035997D-01

 Vector  109  Occ=0.000000D+00  E= 2.041833D-01

 Vector  110  Occ=0.000000D+00  E= 2.067456D-01

 Vector  111  Occ=0.000000D+00  E= 2.111180D-01

 Vector  112  Occ=0.000000D+00  E= 2.152375D-01

 Vector  113  Occ=0.000000D+00  E= 2.209492D-01

 Vector  114  Occ=0.000000D+00  E= 2.284731D-01

 Vector  115  Occ=0.000000D+00  E= 2.355172D-01

 Vector  116  Occ=0.000000D+00  E= 2.359757D-01

 Vector  117  Occ=0.000000D+00  E= 2.431429D-01

 Vector  118  Occ=0.000000D+00  E= 2.441441D-01

 Vector  119  Occ=0.000000D+00  E= 2.484971D-01

 Vector  120  Occ=0.000000D+00  E= 2.526916D-01

 Vector  121  Occ=0.000000D+00  E= 2.565292D-01

 Vector  122  Occ=0.000000D+00  E= 2.627711D-01

 Vector  123  Occ=0.000000D+00  E= 2.655957D-01

 Vector  124  Occ=0.000000D+00  E= 2.725931D-01

 Vector  125  Occ=0.000000D+00  E= 2.765446D-01

 Vector  126  Occ=0.000000D+00  E= 2.821601D-01

 Vector  127  Occ=0.000000D+00  E= 2.886472D-01

 Vector  128  Occ=0.000000D+00  E= 2.978089D-01

 Vector  129  Occ=0.000000D+00  E= 3.004272D-01

 Vector  130  Occ=0.000000D+00  E= 3.061326D-01

 Vector  131  Occ=0.000000D+00  E= 3.142468D-01

 Vector  132  Occ=0.000000D+00  E= 3.161931D-01

 Vector  133  Occ=0.000000D+00  E= 3.279480D-01

 Vector  134  Occ=0.000000D+00  E= 3.311622D-01

 Vector  135  Occ=0.000000D+00  E= 3.345829D-01

 Vector  136  Occ=0.000000D+00  E= 3.381351D-01

 Vector  137  Occ=0.000000D+00  E= 3.455638D-01

 Vector  138  Occ=0.000000D+00  E= 3.470516D-01

 Vector  139  Occ=0.000000D+00  E= 3.482457D-01

 Vector  140  Occ=0.000000D+00  E= 3.532671D-01

 Vector  141  Occ=0.000000D+00  E= 3.561923D-01

 Vector  142  Occ=0.000000D+00  E= 3.602823D-01

 Vector  143  Occ=0.000000D+00  E= 3.651449D-01

 Vector  144  Occ=0.000000D+00  E= 3.667214D-01

 Vector  145  Occ=0.000000D+00  E= 3.708073D-01

 Vector  146  Occ=0.000000D+00  E= 3.718657D-01

 Vector  147  Occ=0.000000D+00  E= 3.783745D-01

 Vector  148  Occ=0.000000D+00  E= 3.829263D-01

 Vector  149  Occ=0.000000D+00  E= 3.864703D-01

 Vector  150  Occ=0.000000D+00  E= 3.900984D-01

 Vector  151  Occ=0.000000D+00  E= 3.953820D-01

 Vector  152  Occ=0.000000D+00  E= 3.989780D-01

 Vector  153  Occ=0.000000D+00  E= 3.992041D-01

 Vector  154  Occ=0.000000D+00  E= 4.048092D-01

 Vector  155  Occ=0.000000D+00  E= 4.165815D-01

 Vector  156  Occ=0.000000D+00  E= 4.180170D-01

 Vector  157  Occ=0.000000D+00  E= 4.253193D-01

 Vector  158  Occ=0.000000D+00  E= 4.263759D-01

 Vector  159  Occ=0.000000D+00  E= 4.297970D-01

 Vector  160  Occ=0.000000D+00  E= 4.323830D-01

 Vector  161  Occ=0.000000D+00  E= 4.357473D-01

 Vector  162  Occ=0.000000D+00  E= 4.394064D-01

 Vector  163  Occ=0.000000D+00  E= 4.438904D-01

 Vector  164  Occ=0.000000D+00  E= 4.474370D-01

 Vector  165  Occ=0.000000D+00  E= 4.527465D-01

 Vector  166  Occ=0.000000D+00  E= 4.545856D-01

 Vector  167  Occ=0.000000D+00  E= 4.590911D-01

 Vector  168  Occ=0.000000D+00  E= 4.693058D-01

 Vector  169  Occ=0.000000D+00  E= 4.703129D-01

 Vector  170  Occ=0.000000D+00  E= 4.757957D-01

 Vector  171  Occ=0.000000D+00  E= 4.809700D-01

 Vector  172  Occ=0.000000D+00  E= 4.872828D-01

 Vector  173  Occ=0.000000D+00  E= 4.892979D-01

 Vector  174  Occ=0.000000D+00  E= 4.902388D-01

 Vector  175  Occ=0.000000D+00  E= 4.972364D-01

 Vector  176  Occ=0.000000D+00  E= 5.002960D-01

       Multipole analysis of the density wrt the origin
       ------------------------------------------------

     L   x y z        total         open         nuclear
     -   - - -        -----         ----         -------
     0   0 0 0     -0.000000      0.000000    130.000000

     1   1 0 0      0.483745      0.000000      0.000000
     1   0 1 0     -1.077133      0.000000     -0.000000
     1   0 0 1      0.817319      0.000000     -0.000000

     2   2 0 0    -79.437580      0.000000   1231.085395
     2   1 1 0     -1.241148      0.000000     -2.253117
     2   1 0 1     -1.547724      0.000000    -12.908549
     2   0 2 0    -68.622424      0.000000   2032.623341
     2   0 1 1     -2.598574      0.000000    -14.689077

 Total times  cpu:     4276.7s     wall:     4506.5s
