 Output coordinates in angstroms (scale by  1.889725989 to convert to a.u.)

  No.       Tag          Charge          X              Y              Z
 ---- ---------------- ---------- -------------- -------------- --------------
    1 H                    1.0000    -1.92356459     4.57132845    -0.23716081
    2 C                    6.0000    -0.90359608     4.83992718     0.02872820
    3 H                    1.0000    -0.83915095     5.05281193     1.09331681
    4 H                    1.0000    -0.59541010     5.71699546    -0.53961204
    5 C                    6.0000     0.01981938     3.69197750    -0.30754315
    6 O                    8.0000     0.93190266     3.85113926    -1.10747416
    7 N                    7.0000    -0.22593798     2.53431526     0.30162221
    8 H                    1.0000    -1.01987779     2.47068291     0.91976420
    9 C                    6.0000     0.53597844     1.30265001     0.09150062
   10 H                    1.0000     0.88000355     1.27237947    -0.94381161
   11 C                    6.0000     1.76648744     1.31500531     1.01215525
   12 H                    1.0000     2.38116674     2.18940093     0.79497409
   13 H                    1.0000     1.45044621     1.34745701     2.05560042
   14 H                    1.0000     2.36457303     0.41851175     0.84636642
   15 C                    6.0000    -0.34180953     0.06145860     0.33731190
   16 O                    8.0000    -1.38121548     0.14828316     0.99159378
   17 N                    7.0000     0.08797371    -1.09647145    -0.16869932
   18 H                    1.0000     0.97181422    -1.11629261    -0.65721347
   19 C                    6.0000    -0.59472839    -2.38124461    -0.01463846
   20 H                    1.0000    -1.09425975    -2.40474479     0.95550079
   21 C                    6.0000    -1.65765388    -2.51428624    -1.11522800
   22 H                    1.0000    -1.18233179    -2.49342365    -2.09689783
   23 H                    1.0000    -2.19842073    -3.45381717    -1.00025908
   24 H                    1.0000    -2.36873048    -1.68971495    -1.04352540
   25 C                    6.0000     0.41333464    -3.54600341    -0.05447391
   26 O                    8.0000     1.53442243    -3.39862497    -0.52968309
   27 N                    7.0000     0.03285998    -4.72129394     0.43005802
   28 H                    1.0000    -0.89074677    -4.83962889     0.81260266
   29 H                    1.0000     0.69235018    -5.48108066     0.39712143

         Total SCF energy =   -699.784148338373

 Vector   76  Occ=0.000000D+00  E= 1.418411D-01

 Vector   77  Occ=0.000000D+00  E= 1.477110D-01

 Vector   78  Occ=0.000000D+00  E= 1.533249D-01

 Vector   79  Occ=0.000000D+00  E= 1.542666D-01

 Vector   80  Occ=0.000000D+00  E= 1.571821D-01

 Vector   81  Occ=0.000000D+00  E= 1.593808D-01

 Vector   82  Occ=0.000000D+00  E= 1.634394D-01

 Vector   83  Occ=0.000000D+00  E= 1.676995D-01

 Vector   84  Occ=0.000000D+00  E= 1.721355D-01

 Vector   85  Occ=0.000000D+00  E= 1.750104D-01

 Vector   86  Occ=0.000000D+00  E= 1.768195D-01

 Vector   87  Occ=0.000000D+00  E= 1.809507D-01

 Vector   88  Occ=0.000000D+00  E= 1.852314D-01

 Vector   89  Occ=0.000000D+00  E= 1.863072D-01

 Vector   90  Occ=0.000000D+00  E= 1.906496D-01

 Vector   91  Occ=0.000000D+00  E= 1.925623D-01

 Vector   92  Occ=0.000000D+00  E= 1.972245D-01

 Vector   93  Occ=0.000000D+00  E= 2.027846D-01

 Vector   94  Occ=0.000000D+00  E= 2.052476D-01

 Vector   95  Occ=0.000000D+00  E= 2.076102D-01

 Vector   96  Occ=0.000000D+00  E= 2.095734D-01

 Vector   97  Occ=0.000000D+00  E= 2.127427D-01

 Vector   98  Occ=0.000000D+00  E= 2.211880D-01

 Vector   99  Occ=0.000000D+00  E= 2.275802D-01

 Vector  100  Occ=0.000000D+00  E= 2.290194D-01

 Vector  101  Occ=0.000000D+00  E= 2.362527D-01

 Vector  102  Occ=0.000000D+00  E= 2.372260D-01

 Vector  103  Occ=0.000000D+00  E= 2.453824D-01

 Vector  104  Occ=0.000000D+00  E= 2.515830D-01

 Vector  105  Occ=0.000000D+00  E= 2.564865D-01

 Vector  106  Occ=0.000000D+00  E= 2.622146D-01

 Vector  107  Occ=0.000000D+00  E= 2.683153D-01

 Vector  108  Occ=0.000000D+00  E= 2.777644D-01

 Vector  109  Occ=0.000000D+00  E= 2.878291D-01

 Vector  110  Occ=0.000000D+00  E= 2.934092D-01

 Vector  111  Occ=0.000000D+00  E= 2.984319D-01

 Vector  112  Occ=0.000000D+00  E= 3.021611D-01

 Vector  113  Occ=0.000000D+00  E= 3.117708D-01

 Vector  114  Occ=0.000000D+00  E= 3.144872D-01

 Vector  115  Occ=0.000000D+00  E= 3.186270D-01

 Vector  116  Occ=0.000000D+00  E= 3.240008D-01

 Vector  117  Occ=0.000000D+00  E= 3.294188D-01

 Vector  118  Occ=0.000000D+00  E= 3.366315D-01

 Vector  119  Occ=0.000000D+00  E= 3.391837D-01

 Vector  120  Occ=0.000000D+00  E= 3.438148D-01

 Vector  121  Occ=0.000000D+00  E= 3.530264D-01

 Vector  122  Occ=0.000000D+00  E= 3.553264D-01

 Vector  123  Occ=0.000000D+00  E= 3.578512D-01

 Vector  124  Occ=0.000000D+00  E= 3.612195D-01

 Vector  125  Occ=0.000000D+00  E= 3.666876D-01

 Vector  126  Occ=0.000000D+00  E= 3.724246D-01

 Vector  127  Occ=0.000000D+00  E= 3.759027D-01

 Vector  128  Occ=0.000000D+00  E= 3.796473D-01

 Vector  129  Occ=0.000000D+00  E= 3.844022D-01

 Vector  130  Occ=0.000000D+00  E= 3.872770D-01

 Vector  131  Occ=0.000000D+00  E= 3.916050D-01

 Vector  132  Occ=0.000000D+00  E= 3.953753D-01

 Vector  133  Occ=0.000000D+00  E= 4.027270D-01

 Vector  134  Occ=0.000000D+00  E= 4.085240D-01

 Vector  135  Occ=0.000000D+00  E= 4.104730D-01

 Vector  136  Occ=0.000000D+00  E= 4.135840D-01

 Vector  137  Occ=0.000000D+00  E= 4.160548D-01

 Vector  138  Occ=0.000000D+00  E= 4.254220D-01

 Vector  139  Occ=0.000000D+00  E= 4.300491D-01

 Vector  140  Occ=0.000000D+00  E= 4.376184D-01

 Vector  141  Occ=0.000000D+00  E= 4.414028D-01

 Vector  142  Occ=0.000000D+00  E= 4.450176D-01

 Vector  143  Occ=0.000000D+00  E= 4.492466D-01

 Vector  144  Occ=0.000000D+00  E= 4.504289D-01

 Vector  145  Occ=0.000000D+00  E= 4.604303D-01

 Vector  146  Occ=0.000000D+00  E= 4.653178D-01

 Vector  147  Occ=0.000000D+00  E= 4.663539D-01

 Vector  148  Occ=0.000000D+00  E= 4.678005D-01

 Vector  149  Occ=0.000000D+00  E= 4.722281D-01

 Vector  150  Occ=0.000000D+00  E= 4.756524D-01

 Vector  151  Occ=0.000000D+00  E= 4.812715D-01

 Vector  152  Occ=0.000000D+00  E= 4.847562D-01

 Vector  153  Occ=0.000000D+00  E= 4.890457D-01

 Vector  154  Occ=0.000000D+00  E= 4.984014D-01

 Vector  155  Occ=0.000000D+00  E= 5.017198D-01

       Multipole analysis of the density wrt the origin
       ------------------------------------------------

     L   x y z        total         open         nuclear
     -   - - -        -----         ----         -------
     0   0 0 0     -0.000000      0.000000    108.000000

     1   1 0 0     -1.243353      0.000000      0.000000
     1   0 1 0     -1.755949      0.000000     -0.000000
     1   0 0 1      0.886149      0.000000      0.000000

     2   2 0 0    -67.861865      0.000000    436.891120
     2   1 1 0      1.016897      0.000000     12.211560
     2   1 0 1      4.795306      0.000000     17.618900
     2   0 2 0    -51.111022      0.000000   3521.298257
     2   0 1 1      2.370382      0.000000     17.833030

 Total times  cpu:     2086.5s     wall:     2502.2s
