 Output coordinates in angstroms (scale by  1.889725989 to convert to a.u.)

  No.       Tag          Charge          X              Y              Z
 ---- ---------------- ---------- -------------- -------------- --------------
    1 H                    1.0000     1.73705630    -3.62461556     1.58225502
    2 C                    6.0000     1.75620497    -3.76749628     0.50330950
    3 H                    1.0000     1.38001256    -4.75791067     0.25221669
    4 H                    1.0000     2.77816886    -3.66296525     0.13996935
    5 C                    6.0000     0.89115003    -2.71972096    -0.15448974
    6 O                    8.0000     1.38083949    -1.91765334    -0.94304587
    7 N                    7.0000    -0.40019674    -2.71334010     0.17173686
    8 H                    1.0000    -0.72858768    -3.37027506     0.86019154
    9 C                    6.0000    -1.34020485    -1.71558348    -0.33529716
   10 H                    1.0000    -1.32927827    -1.75601594    -1.42567729
   11 C                    6.0000    -2.75366777    -2.07352306     0.14196673
   12 H                    1.0000    -2.79609128    -2.05275529     1.23185339
   13 H                    1.0000    -3.46764004    -1.35021581    -0.25254465
   14 H                    1.0000    -3.02534760    -3.06932458    -0.21225271
   15 C                    6.0000    -0.92307405    -0.29703836     0.10326600
   16 O                    8.0000    -0.81144784    -0.02017574     1.29423731
   17 N                    7.0000    -0.68131753     0.59208492    -0.86726147
   18 H                    1.0000    -0.77675604     0.27730790    -1.81969043
   19 C                    6.0000    -0.11715198     1.93861057    -0.65749512
   20 H                    1.0000     0.04312449     2.35914832    -1.65039665
   21 C                    6.0000    -1.13904989     2.85451740     0.03480637
   22 H                    1.0000    -2.10697123     2.76177126    -0.45890046
   23 H                    1.0000    -1.24522811     2.56646795     1.08187643
   24 O                    8.0000    -0.71347492     4.19669338    -0.04377209
   25 H                    1.0000     0.16563796     4.23433255     0.36655440
   26 C                    6.0000     1.26856336     1.97114795     0.02621191
   27 O                    8.0000     1.68706752     3.00149470     0.54693433
   28 N                    7.0000     2.02024739     0.87611411     0.03585556
   29 H                    1.0000     2.91386464     0.91603553     0.49537976
   30 H                    1.0000     1.68641063     0.01664746    -0.38165145

         Total SCF energy =   -774.652343117040

 Vector   81  Occ=0.000000D+00  E= 1.434518D-01

 Vector   82  Occ=0.000000D+00  E= 1.458633D-01

 Vector   83  Occ=0.000000D+00  E= 1.512112D-01

 Vector   84  Occ=0.000000D+00  E= 1.542515D-01

 Vector   85  Occ=0.000000D+00  E= 1.576568D-01

 Vector   86  Occ=0.000000D+00  E= 1.596629D-01

 Vector   87  Occ=0.000000D+00  E= 1.652389D-01

 Vector   88  Occ=0.000000D+00  E= 1.688577D-01

 Vector   89  Occ=0.000000D+00  E= 1.699083D-01

 Vector   90  Occ=0.000000D+00  E= 1.721579D-01

 Vector   91  Occ=0.000000D+00  E= 1.759601D-01

 Vector   92  Occ=0.000000D+00  E= 1.771985D-01

 Vector   93  Occ=0.000000D+00  E= 1.796169D-01

 Vector   94  Occ=0.000000D+00  E= 1.815106D-01

 Vector   95  Occ=0.000000D+00  E= 1.899863D-01

 Vector   96  Occ=0.000000D+00  E= 1.935427D-01

 Vector   97  Occ=0.000000D+00  E= 1.973365D-01

 Vector   98  Occ=0.000000D+00  E= 2.031063D-01

 Vector   99  Occ=0.000000D+00  E= 2.093477D-01

 Vector  100  Occ=0.000000D+00  E= 2.164481D-01

 Vector  101  Occ=0.000000D+00  E= 2.202692D-01

 Vector  102  Occ=0.000000D+00  E= 2.220448D-01

 Vector  103  Occ=0.000000D+00  E= 2.265371D-01

 Vector  104  Occ=0.000000D+00  E= 2.326116D-01

 Vector  105  Occ=0.000000D+00  E= 2.387097D-01

 Vector  106  Occ=0.000000D+00  E= 2.446899D-01

 Vector  107  Occ=0.000000D+00  E= 2.492420D-01

 Vector  108  Occ=0.000000D+00  E= 2.509364D-01

 Vector  109  Occ=0.000000D+00  E= 2.618284D-01

 Vector  110  Occ=0.000000D+00  E= 2.675556D-01

 Vector  111  Occ=0.000000D+00  E= 2.738378D-01

 Vector  112  Occ=0.000000D+00  E= 2.781245D-01

 Vector  113  Occ=0.000000D+00  E= 2.869060D-01

 Vector  114  Occ=0.000000D+00  E= 2.891344D-01

 Vector  115  Occ=0.000000D+00  E= 2.958215D-01

 Vector  116  Occ=0.000000D+00  E= 3.055617D-01

 Vector  117  Occ=0.000000D+00  E= 3.090041D-01

 Vector  118  Occ=0.000000D+00  E= 3.126829D-01

 Vector  119  Occ=0.000000D+00  E= 3.187469D-01

 Vector  120  Occ=0.000000D+00  E= 3.291337D-01

 Vector  121  Occ=0.000000D+00  E= 3.320769D-01

 Vector  122  Occ=0.000000D+00  E= 3.369968D-01

 Vector  123  Occ=0.000000D+00  E= 3.386462D-01

 Vector  124  Occ=0.000000D+00  E= 3.429785D-01

 Vector  125  Occ=0.000000D+00  E= 3.461774D-01

 Vector  126  Occ=0.000000D+00  E= 3.499122D-01

 Vector  127  Occ=0.000000D+00  E= 3.543862D-01

 Vector  128  Occ=0.000000D+00  E= 3.597358D-01

 Vector  129  Occ=0.000000D+00  E= 3.621250D-01

 Vector  130  Occ=0.000000D+00  E= 3.679667D-01

 Vector  131  Occ=0.000000D+00  E= 3.744909D-01

 Vector  132  Occ=0.000000D+00  E= 3.804493D-01

 Vector  133  Occ=0.000000D+00  E= 3.835203D-01

 Vector  134  Occ=0.000000D+00  E= 3.881786D-01

 Vector  135  Occ=0.000000D+00  E= 3.915332D-01

 Vector  136  Occ=0.000000D+00  E= 3.933747D-01

 Vector  137  Occ=0.000000D+00  E= 3.956251D-01

 Vector  138  Occ=0.000000D+00  E= 3.995284D-01

 Vector  139  Occ=0.000000D+00  E= 4.047374D-01

 Vector  140  Occ=0.000000D+00  E= 4.073236D-01

 Vector  141  Occ=0.000000D+00  E= 4.130624D-01

 Vector  142  Occ=0.000000D+00  E= 4.175785D-01

 Vector  143  Occ=0.000000D+00  E= 4.220550D-01

 Vector  144  Occ=0.000000D+00  E= 4.242134D-01

 Vector  145  Occ=0.000000D+00  E= 4.328305D-01

 Vector  146  Occ=0.000000D+00  E= 4.382882D-01

 Vector  147  Occ=0.000000D+00  E= 4.402093D-01

 Vector  148  Occ=0.000000D+00  E= 4.441088D-01

 Vector  149  Occ=0.000000D+00  E= 4.548144D-01

 Vector  150  Occ=0.000000D+00  E= 4.566907D-01

 Vector  151  Occ=0.000000D+00  E= 4.627166D-01

 Vector  152  Occ=0.000000D+00  E= 4.639028D-01

 Vector  153  Occ=0.000000D+00  E= 4.743719D-01

 Vector  154  Occ=0.000000D+00  E= 4.769831D-01

 Vector  155  Occ=0.000000D+00  E= 4.775186D-01

 Vector  156  Occ=0.000000D+00  E= 4.876405D-01

 Vector  157  Occ=0.000000D+00  E= 4.895703D-01

 Vector  158  Occ=0.000000D+00  E= 4.955732D-01

 Vector  159  Occ=0.000000D+00  E= 4.990062D-01

 Vector  160  Occ=0.000000D+00  E= 5.043203D-01

       Multipole analysis of the density wrt the origin
       ------------------------------------------------

     L   x y z        total         open         nuclear
     -   - - -        -----         ----         -------
     0   0 0 0      0.000000      0.000000    116.000000

     1   1 0 0     -0.833986      0.000000      0.000000
     1   0 1 0     -3.491493      0.000000      0.000000
     1   0 0 1     -0.769464      0.000000      0.000000

     2   2 0 0    -63.489123      0.000000    872.668863
     2   1 1 0      0.544062      0.000000     -7.180400
     2   1 0 1      4.243530      0.000000      8.228611
     2   0 2 0    -72.597938      0.000000   2456.019522
     2   0 1 1     -6.322148      0.000000    -18.141811

 Total times  cpu:     3294.2s     wall:     3402.0s
