 Output coordinates in angstroms (scale by  1.889725989 to convert to a.u.)

  No.       Tag          Charge          X              Y              Z
 ---- ---------------- ---------- -------------- -------------- --------------
    1 H                    1.0000    -1.24099761    -5.57292044    -1.14878278
    2 C                    6.0000    -1.36692857    -5.30337782    -0.10224842
    3 H                    1.0000    -1.27058013    -6.19282031     0.51929726
    4 H                    1.0000    -2.34613030    -4.85416469     0.05067163
    5 C                    6.0000    -0.29549417    -4.31279804     0.29051870
    6 O                    8.0000     0.49621151    -4.58671436     1.18201966
    7 N                    7.0000    -0.27903204    -3.16069291    -0.37410959
    8 H                    1.0000    -0.98977768    -2.99236385    -1.07025753
    9 C                    6.0000     0.66066818    -2.06709863    -0.12446171
   10 H                    1.0000     0.90604474    -2.04752348     0.93807213
   11 C                    6.0000     1.94988977    -2.32791824    -0.91793120
   12 H                    1.0000     2.38165774    -3.28290557    -0.61663794
   13 H                    1.0000     1.73100407    -2.35303936    -1.98625090
   14 H                    1.0000     2.67503606    -1.53792512    -0.71978046
   15 C                    6.0000     0.03627530    -0.70833949    -0.49145100
   16 O                    8.0000    -0.93873068    -0.64679110    -1.24209082
   17 N                    7.0000     0.60670493     0.38294481     0.02548866
   18 H                    1.0000     1.42279978     0.27446581     0.61117161
   19 C                    6.0000     0.16083472     1.76258699    -0.22079206
   20 H                    1.0000    -0.20127744     1.80931629    -1.24740209
   21 C                    6.0000    -1.01555975     2.11994705     0.72658318
   22 H                    1.0000    -1.79112681     1.36359561     0.58974299
   23 C                    6.0000    -0.60207490     2.08648487     2.21022585
   24 H                    1.0000     0.15480068     2.84460428     2.41620722
   25 H                    1.0000    -1.47032238     2.27319207     2.84209350
   26 H                    1.0000    -0.20053605     1.10694210     2.47096999
   27 C                    6.0000    -1.66515444     3.49201007     0.44179411
   28 H                    1.0000    -2.47482127     3.64499017     1.15746981
   29 H                    1.0000    -0.94068790     4.29175199     0.59171105
   30 C                    6.0000    -2.26861368     3.60943610    -0.96446123
   31 H                    1.0000    -1.48672135     3.58234868    -1.72126612
   32 H                    1.0000    -2.97071016     2.79254957    -1.13586406
   33 H                    1.0000    -2.80083396     4.55695065    -1.04826313
   34 C                    6.0000     1.35145858     2.72678489    -0.10650630
   35 O                    8.0000     2.29943663     2.47572152     0.62945145
   36 N                    7.0000     1.34231624     3.83423205    -0.83588083
   37 H                    1.0000     2.13033707     4.45683245    -0.76114189
   38 H                    1.0000     0.56577304     4.03670047    -1.44290983

         Total SCF energy =   -816.893153205838

 Vector  112  Occ=0.000000D+00  E= 1.952186D-01

 Vector  113  Occ=0.000000D+00  E= 1.999594D-01

 Vector  114  Occ=0.000000D+00  E= 2.042073D-01

 Vector  115  Occ=0.000000D+00  E= 2.059435D-01

 Vector  116  Occ=0.000000D+00  E= 2.070464D-01

 Vector  117  Occ=0.000000D+00  E= 2.129120D-01

 Vector  118  Occ=0.000000D+00  E= 2.145357D-01

 Vector  119  Occ=0.000000D+00  E= 2.174951D-01

 Vector  120  Occ=0.000000D+00  E= 2.216795D-01

 Vector  121  Occ=0.000000D+00  E= 2.255571D-01

 Vector  122  Occ=0.000000D+00  E= 2.280066D-01

 Vector  123  Occ=0.000000D+00  E= 2.287221D-01

 Vector  124  Occ=0.000000D+00  E= 2.358417D-01

 Vector  125  Occ=0.000000D+00  E= 2.378803D-01

 Vector  126  Occ=0.000000D+00  E= 2.431373D-01

 Vector  127  Occ=0.000000D+00  E= 2.488888D-01

 Vector  128  Occ=0.000000D+00  E= 2.543442D-01

 Vector  129  Occ=0.000000D+00  E= 2.585344D-01

 Vector  130  Occ=0.000000D+00  E= 2.639479D-01

 Vector  131  Occ=0.000000D+00  E= 2.676387D-01

 Vector  132  Occ=0.000000D+00  E= 2.716923D-01

 Vector  133  Occ=0.000000D+00  E= 2.803028D-01

 Vector  134  Occ=0.000000D+00  E= 2.849481D-01

 Vector  135  Occ=0.000000D+00  E= 2.904509D-01

 Vector  136  Occ=0.000000D+00  E= 3.002340D-01

 Vector  137  Occ=0.000000D+00  E= 3.049163D-01

 Vector  138  Occ=0.000000D+00  E= 3.058812D-01

 Vector  139  Occ=0.000000D+00  E= 3.134973D-01

 Vector  140  Occ=0.000000D+00  E= 3.204848D-01

 Vector  141  Occ=0.000000D+00  E= 3.229448D-01

 Vector  142  Occ=0.000000D+00  E= 3.280258D-01

 Vector  143  Occ=0.000000D+00  E= 3.315901D-01

 Vector  144  Occ=0.000000D+00  E= 3.363750D-01

 Vector  145  Occ=0.000000D+00  E= 3.405276D-01

 Vector  146  Occ=0.000000D+00  E= 3.434518D-01

 Vector  147  Occ=0.000000D+00  E= 3.475276D-01

 Vector  148  Occ=0.000000D+00  E= 3.544709D-01

 Vector  149  Occ=0.000000D+00  E= 3.562195D-01

 Vector  150  Occ=0.000000D+00  E= 3.576745D-01

 Vector  151  Occ=0.000000D+00  E= 3.623445D-01

 Vector  152  Occ=0.000000D+00  E= 3.659042D-01

 Vector  153  Occ=0.000000D+00  E= 3.724031D-01

 Vector  154  Occ=0.000000D+00  E= 3.751648D-01

 Vector  155  Occ=0.000000D+00  E= 3.774185D-01

 Vector  156  Occ=0.000000D+00  E= 3.823307D-01

 Vector  157  Occ=0.000000D+00  E= 3.849517D-01

 Vector  158  Occ=0.000000D+00  E= 3.876113D-01

 Vector  159  Occ=0.000000D+00  E= 3.881868D-01

 Vector  160  Occ=0.000000D+00  E= 3.914701D-01

 Vector  161  Occ=0.000000D+00  E= 3.981856D-01

 Vector  162  Occ=0.000000D+00  E= 4.042824D-01

 Vector  163  Occ=0.000000D+00  E= 4.102302D-01

 Vector  164  Occ=0.000000D+00  E= 4.107920D-01

 Vector  165  Occ=0.000000D+00  E= 4.134093D-01

 Vector  166  Occ=0.000000D+00  E= 4.183241D-01

 Vector  167  Occ=0.000000D+00  E= 4.204243D-01

 Vector  168  Occ=0.000000D+00  E= 4.239728D-01

 Vector  169  Occ=0.000000D+00  E= 4.252728D-01

 Vector  170  Occ=0.000000D+00  E= 4.273727D-01

 Vector  171  Occ=0.000000D+00  E= 4.318140D-01

 Vector  172  Occ=0.000000D+00  E= 4.379517D-01

 Vector  173  Occ=0.000000D+00  E= 4.392876D-01

 Vector  174  Occ=0.000000D+00  E= 4.439131D-01

 Vector  175  Occ=0.000000D+00  E= 4.463210D-01

 Vector  176  Occ=0.000000D+00  E= 4.493108D-01

 Vector  177  Occ=0.000000D+00  E= 4.516920D-01

 Vector  178  Occ=0.000000D+00  E= 4.578972D-01

 Vector  179  Occ=0.000000D+00  E= 4.620790D-01

 Vector  180  Occ=0.000000D+00  E= 4.651989D-01

 Vector  181  Occ=0.000000D+00  E= 4.668972D-01

 Vector  182  Occ=0.000000D+00  E= 4.677439D-01

 Vector  183  Occ=0.000000D+00  E= 4.747334D-01

 Vector  184  Occ=0.000000D+00  E= 4.762134D-01

 Vector  185  Occ=0.000000D+00  E= 4.783928D-01

 Vector  186  Occ=0.000000D+00  E= 4.842408D-01

 Vector  187  Occ=0.000000D+00  E= 4.879175D-01

 Vector  188  Occ=0.000000D+00  E= 4.896259D-01

 Vector  189  Occ=0.000000D+00  E= 4.926627D-01

 Vector  190  Occ=0.000000D+00  E= 4.978645D-01

 Vector  191  Occ=0.000000D+00  E= 5.051762D-01

       Multipole analysis of the density wrt the origin
       ------------------------------------------------

     L   x y z        total         open         nuclear
     -   - - -        -----         ----         -------
     0   0 0 0      0.000000      0.000000    132.000000

     1   1 0 0     -0.844123      0.000000      0.000000
     1   0 1 0      1.816123      0.000000      0.000000
     1   0 0 1     -1.183348      0.000000     -0.000000

     2   2 0 0    -80.978734      0.000000    841.883237
     2   1 1 0      3.641626      0.000000    -39.335387
     2   1 0 1     -6.351149      0.000000     -9.670058
     2   0 2 0    -72.201816      0.000000   4490.581028
     2   0 1 1      2.840069      0.000000     18.078158

 Total times  cpu:     4900.5s     wall:     5267.7s
