 Output coordinates in angstroms (scale by  1.889725989 to convert to a.u.)

  No.       Tag          Charge          X              Y              Z
 ---- ---------------- ---------- -------------- -------------- --------------
    1 H                    1.0000     2.18255637    -2.55134210     2.07515157
    2 C                    6.0000     2.58266034    -2.14324905     1.14754449
    3 H                    1.0000     2.14455611    -2.66916847     0.30042795
    4 H                    1.0000     3.66434100    -2.25873337     1.13699409
    5 C                    6.0000     2.23214582    -0.67746104     1.06458012
    6 O                    8.0000     1.62633925    -0.13225394     1.97846666
    7 N                    7.0000     2.61384192    -0.03416008    -0.03697922
    8 H                    1.0000     3.08477295    -0.56870169    -0.74783661
    9 C                    6.0000     2.45136160     1.40475787    -0.27652310
   10 H                    1.0000     2.70927387     1.92365115     0.64777178
   11 C                    6.0000     3.47526602     1.82344158    -1.34233954
   12 H                    1.0000     3.44456380     2.90603609    -1.47585920
   13 H                    1.0000     4.48081916     1.53978419    -1.02781392
   14 H                    1.0000     3.24220102     1.34430778    -2.29428938
   15 C                    6.0000     0.99976453     1.83251020    -0.61946463
   16 O                    8.0000     0.77310921     2.59832219    -1.55468512
   17 N                    7.0000     0.00712293     1.33156835     0.12066909
   18 H                    1.0000     0.27208175     0.72687310     0.89084340
   19 C                    6.0000    -1.43254473     1.53416789    -0.11171516
   20 H                    1.0000    -1.60345001     1.45013595    -1.18499798
   21 C                    6.0000    -2.21645167     0.39740587     0.56808996
   22 H                    1.0000    -2.13863418     0.51714973     1.64957776
   23 H                    1.0000    -3.27077348     0.49015229     0.30475630
   24 C                    6.0000    -1.75966192    -1.00078129     0.18728317
   25 C                    6.0000    -1.10390298    -1.81566518     1.13161545
   26 H                    1.0000    -0.92126264    -1.44590626     2.13329946
   27 C                    6.0000    -0.68265480    -3.11039535     0.77504602
   28 H                    1.0000    -0.18708254    -3.74455884     1.49472220
   29 C                    6.0000    -0.90659998    -3.59138461    -0.53044503
   30 O                    8.0000    -0.48316852    -4.83636763    -0.87084489
   31 H                    1.0000    -0.81172698    -5.10450491    -1.73021253
   32 C                    6.0000    -1.56119172    -2.77640630    -1.47974004
   33 H                    1.0000    -1.73590330    -3.14048522    -2.48005570
   34 C                    6.0000    -1.98814326    -1.48425187    -1.11670244
   35 H                    1.0000    -2.49557588    -0.86007294    -1.83875356
   36 C                    6.0000    -1.95466921     2.93364954     0.29223676
   37 O                    8.0000    -3.03827027     3.07896391     0.84635361
   38 N                    7.0000    -1.19634595     3.99421921     0.05209765
   39 H                    1.0000    -0.33180941     3.87619482    -0.45751084
   40 H                    1.0000    -1.53762533     4.90045033     0.32215423

         Total SCF energy =  -1004.218408225530

 Vector  133  Occ=0.000000D+00  E= 2.169562D-01

 Vector  134  Occ=0.000000D+00  E= 2.181743D-01

 Vector  135  Occ=0.000000D+00  E= 2.217638D-01

 Vector  136  Occ=0.000000D+00  E= 2.242651D-01

 Vector  137  Occ=0.000000D+00  E= 2.282785D-01

 Vector  138  Occ=0.000000D+00  E= 2.296239D-01

 Vector  139  Occ=0.000000D+00  E= 2.345184D-01

 Vector  140  Occ=0.000000D+00  E= 2.399342D-01

 Vector  141  Occ=0.000000D+00  E= 2.418078D-01

 Vector  142  Occ=0.000000D+00  E= 2.451602D-01

 Vector  143  Occ=0.000000D+00  E= 2.494682D-01

 Vector  144  Occ=0.000000D+00  E= 2.529697D-01

 Vector  145  Occ=0.000000D+00  E= 2.585305D-01

 Vector  146  Occ=0.000000D+00  E= 2.618478D-01

 Vector  147  Occ=0.000000D+00  E= 2.670201D-01

 Vector  148  Occ=0.000000D+00  E= 2.742568D-01

 Vector  149  Occ=0.000000D+00  E= 2.773985D-01

 Vector  150  Occ=0.000000D+00  E= 2.841515D-01

 Vector  151  Occ=0.000000D+00  E= 2.867503D-01

 Vector  152  Occ=0.000000D+00  E= 2.926485D-01

 Vector  153  Occ=0.000000D+00  E= 3.007139D-01

 Vector  154  Occ=0.000000D+00  E= 3.044365D-01

 Vector  155  Occ=0.000000D+00  E= 3.063616D-01

 Vector  156  Occ=0.000000D+00  E= 3.115686D-01

 Vector  157  Occ=0.000000D+00  E= 3.159170D-01

 Vector  158  Occ=0.000000D+00  E= 3.184072D-01

 Vector  159  Occ=0.000000D+00  E= 3.214417D-01

 Vector  160  Occ=0.000000D+00  E= 3.248163D-01

 Vector  161  Occ=0.000000D+00  E= 3.302193D-01

 Vector  162  Occ=0.000000D+00  E= 3.314677D-01

 Vector  163  Occ=0.000000D+00  E= 3.321843D-01

 Vector  164  Occ=0.000000D+00  E= 3.381338D-01

 Vector  165  Occ=0.000000D+00  E= 3.405129D-01

 Vector  166  Occ=0.000000D+00  E= 3.414847D-01

 Vector  167  Occ=0.000000D+00  E= 3.456824D-01

 Vector  168  Occ=0.000000D+00  E= 3.490178D-01

 Vector  169  Occ=0.000000D+00  E= 3.532273D-01

 Vector  170  Occ=0.000000D+00  E= 3.595859D-01

 Vector  171  Occ=0.000000D+00  E= 3.626526D-01

 Vector  172  Occ=0.000000D+00  E= 3.670076D-01

 Vector  173  Occ=0.000000D+00  E= 3.692758D-01

 Vector  174  Occ=0.000000D+00  E= 3.714362D-01

 Vector  175  Occ=0.000000D+00  E= 3.750345D-01

 Vector  176  Occ=0.000000D+00  E= 3.766749D-01

 Vector  177  Occ=0.000000D+00  E= 3.831879D-01

 Vector  178  Occ=0.000000D+00  E= 3.847480D-01

 Vector  179  Occ=0.000000D+00  E= 3.882489D-01

 Vector  180  Occ=0.000000D+00  E= 3.919080D-01

 Vector  181  Occ=0.000000D+00  E= 3.938210D-01

 Vector  182  Occ=0.000000D+00  E= 3.961916D-01

 Vector  183  Occ=0.000000D+00  E= 3.996702D-01

 Vector  184  Occ=0.000000D+00  E= 4.012663D-01

 Vector  185  Occ=0.000000D+00  E= 4.074114D-01

 Vector  186  Occ=0.000000D+00  E= 4.107766D-01

 Vector  187  Occ=0.000000D+00  E= 4.142416D-01

 Vector  188  Occ=0.000000D+00  E= 4.151571D-01

 Vector  189  Occ=0.000000D+00  E= 4.177369D-01

 Vector  190  Occ=0.000000D+00  E= 4.219864D-01

 Vector  191  Occ=0.000000D+00  E= 4.261799D-01

 Vector  192  Occ=0.000000D+00  E= 4.315836D-01

 Vector  193  Occ=0.000000D+00  E= 4.349476D-01

 Vector  194  Occ=0.000000D+00  E= 4.366305D-01

 Vector  195  Occ=0.000000D+00  E= 4.403513D-01

 Vector  196  Occ=0.000000D+00  E= 4.428806D-01

 Vector  197  Occ=0.000000D+00  E= 4.496456D-01

 Vector  198  Occ=0.000000D+00  E= 4.505377D-01

 Vector  199  Occ=0.000000D+00  E= 4.534198D-01

 Vector  200  Occ=0.000000D+00  E= 4.554748D-01

 Vector  201  Occ=0.000000D+00  E= 4.582450D-01

 Vector  202  Occ=0.000000D+00  E= 4.625924D-01

 Vector  203  Occ=0.000000D+00  E= 4.635527D-01

 Vector  204  Occ=0.000000D+00  E= 4.706919D-01

 Vector  205  Occ=0.000000D+00  E= 4.728514D-01

 Vector  206  Occ=0.000000D+00  E= 4.797186D-01

 Vector  207  Occ=0.000000D+00  E= 4.802589D-01

 Vector  208  Occ=0.000000D+00  E= 4.868771D-01

 Vector  209  Occ=0.000000D+00  E= 4.893031D-01

 Vector  210  Occ=0.000000D+00  E= 4.907760D-01

 Vector  211  Occ=0.000000D+00  E= 4.946763D-01

 Vector  212  Occ=0.000000D+00  E= 5.009930D-01

       Multipole analysis of the density wrt the origin
       ------------------------------------------------

     L   x y z        total         open         nuclear
     -   - - -        -----         ----         -------
     0   0 0 0     -0.000000      0.000000    156.000000

     1   1 0 0      2.141643      0.000000     -0.000000
     1   0 1 0     -1.447591      0.000000     -0.000000
     1   0 0 1     -1.202566      0.000000      0.000000

     2   2 0 0    -92.933133      0.000000   2120.790111
     2   1 1 0      6.919607      0.000000      9.155482
     2   1 0 1      4.341808      0.000000     -5.475805
     2   0 2 0    -92.361681      0.000000   3361.070330
     2   0 1 1      5.172252      0.000000    -11.797199

 Total times  cpu:    17913.4s     wall:    17971.6s
