 Output coordinates in angstroms (scale by  1.889725989 to convert to a.u.)

  No.       Tag          Charge          X              Y              Z
 ---- ---------------- ---------- -------------- -------------- --------------
    1 H                    1.0000     3.00578447    -3.14179028     0.14844910
    2 C                    6.0000     1.99042640    -3.33400686     0.49436350
    3 H                    1.0000     1.94626753    -3.21070799     1.57498063
    4 H                    1.0000     1.69776448    -4.34627104     0.22254882
    5 C                    6.0000     1.05358437    -2.34607504    -0.15808476
    6 O                    8.0000     1.48916125    -1.49428754    -0.92538968
    7 N                    7.0000    -0.23816372    -2.44973819     0.14945193
    8 H                    1.0000    -0.52156922    -3.13908337     0.82355619
    9 C                    6.0000    -1.24603246    -1.51248435    -0.34758413
   10 H                    1.0000    -1.22250470    -1.53327344    -1.43855034
   11 C                    6.0000    -2.63248131    -1.98093773     0.11100174
   12 H                    1.0000    -2.68398633    -1.97939114     1.20096864
   13 H                    1.0000    -3.39405159    -1.30393019    -0.27792819
   14 H                    1.0000    -2.82860210    -2.98659862    -0.26090391
   15 C                    6.0000    -0.93549366    -0.07646415     0.11809457
   16 O                    8.0000    -0.78372447     0.16646681     1.31323835
   17 N                    7.0000    -0.82641361     0.85635722    -0.83514403
   18 H                    1.0000    -0.94918068     0.55793050    -1.78864324
   19 C                    6.0000    -0.38929485     2.24540145    -0.62707118
   20 H                    1.0000    -0.28930263     2.68297038    -1.62019000
   21 C                    6.0000    -1.50024873     3.03837947     0.08199887
   22 H                    1.0000    -2.44595922     2.91308046    -0.44590437
   23 H                    1.0000    -1.61057430     2.69166524     1.10996945
   24 H                    1.0000    -1.24130902     4.09760838     0.09737227
   25 C                    6.0000     1.01289828     2.41789476     0.01563753
   26 O                    8.0000     1.37894088     3.51252934     0.42754644
   27 N                    7.0000     1.84172632     1.38131968     0.07963119
   28 H                    1.0000     1.56034287     0.47302187    -0.26234607
   29 H                    1.0000     2.74166797     1.52128422     0.50574967

         Total SCF energy =   -699.778402486800

 Vector   73  Occ=0.000000D+00  E= 1.309746D-01

 Vector   74  Occ=0.000000D+00  E= 1.369128D-01

 Vector   75  Occ=0.000000D+00  E= 1.400937D-01

 Vector   76  Occ=0.000000D+00  E= 1.428064D-01

 Vector   77  Occ=0.000000D+00  E= 1.457541D-01

 Vector   78  Occ=0.000000D+00  E= 1.479100D-01

 Vector   79  Occ=0.000000D+00  E= 1.518232D-01

 Vector   80  Occ=0.000000D+00  E= 1.568094D-01

 Vector   81  Occ=0.000000D+00  E= 1.606272D-01

 Vector   82  Occ=0.000000D+00  E= 1.624562D-01

 Vector   83  Occ=0.000000D+00  E= 1.689615D-01

 Vector   84  Occ=0.000000D+00  E= 1.695971D-01

 Vector   85  Occ=0.000000D+00  E= 1.717403D-01

 Vector   86  Occ=0.000000D+00  E= 1.741108D-01

 Vector   87  Occ=0.000000D+00  E= 1.779775D-01

 Vector   88  Occ=0.000000D+00  E= 1.812814D-01

 Vector   89  Occ=0.000000D+00  E= 1.842977D-01

 Vector   90  Occ=0.000000D+00  E= 1.861863D-01

 Vector   91  Occ=0.000000D+00  E= 1.895473D-01

 Vector   92  Occ=0.000000D+00  E= 1.966469D-01

 Vector   93  Occ=0.000000D+00  E= 2.010635D-01

 Vector   94  Occ=0.000000D+00  E= 2.071414D-01

 Vector   95  Occ=0.000000D+00  E= 2.126961D-01

 Vector   96  Occ=0.000000D+00  E= 2.167316D-01

 Vector   97  Occ=0.000000D+00  E= 2.214245D-01

 Vector   98  Occ=0.000000D+00  E= 2.261459D-01

 Vector   99  Occ=0.000000D+00  E= 2.319229D-01

 Vector  100  Occ=0.000000D+00  E= 2.374753D-01

 Vector  101  Occ=0.000000D+00  E= 2.445714D-01

 Vector  102  Occ=0.000000D+00  E= 2.462323D-01

 Vector  103  Occ=0.000000D+00  E= 2.528813D-01

 Vector  104  Occ=0.000000D+00  E= 2.549958D-01

 Vector  105  Occ=0.000000D+00  E= 2.683145D-01

 Vector  106  Occ=0.000000D+00  E= 2.766415D-01

 Vector  107  Occ=0.000000D+00  E= 2.776907D-01

 Vector  108  Occ=0.000000D+00  E= 2.893227D-01

 Vector  109  Occ=0.000000D+00  E= 2.960122D-01

 Vector  110  Occ=0.000000D+00  E= 2.971040D-01

 Vector  111  Occ=0.000000D+00  E= 3.090479D-01

 Vector  112  Occ=0.000000D+00  E= 3.113183D-01

 Vector  113  Occ=0.000000D+00  E= 3.159330D-01

 Vector  114  Occ=0.000000D+00  E= 3.172112D-01

 Vector  115  Occ=0.000000D+00  E= 3.279304D-01

 Vector  116  Occ=0.000000D+00  E= 3.369183D-01

 Vector  117  Occ=0.000000D+00  E= 3.398113D-01

 Vector  118  Occ=0.000000D+00  E= 3.454638D-01

 Vector  119  Occ=0.000000D+00  E= 3.493067D-01

 Vector  120  Occ=0.000000D+00  E= 3.528506D-01

 Vector  121  Occ=0.000000D+00  E= 3.565707D-01

 Vector  122  Occ=0.000000D+00  E= 3.588870D-01

 Vector  123  Occ=0.000000D+00  E= 3.661157D-01

 Vector  124  Occ=0.000000D+00  E= 3.676674D-01

 Vector  125  Occ=0.000000D+00  E= 3.760666D-01

 Vector  126  Occ=0.000000D+00  E= 3.827259D-01

 Vector  127  Occ=0.000000D+00  E= 3.874409D-01

 Vector  128  Occ=0.000000D+00  E= 3.904225D-01

 Vector  129  Occ=0.000000D+00  E= 3.931093D-01

 Vector  130  Occ=0.000000D+00  E= 3.980723D-01

 Vector  131  Occ=0.000000D+00  E= 4.000897D-01

 Vector  132  Occ=0.000000D+00  E= 4.038491D-01

 Vector  133  Occ=0.000000D+00  E= 4.117054D-01

 Vector  134  Occ=0.000000D+00  E= 4.177063D-01

 Vector  135  Occ=0.000000D+00  E= 4.182429D-01

 Vector  136  Occ=0.000000D+00  E= 4.252858D-01

 Vector  137  Occ=0.000000D+00  E= 4.266749D-01

 Vector  138  Occ=0.000000D+00  E= 4.303144D-01

 Vector  139  Occ=0.000000D+00  E= 4.344764D-01

 Vector  140  Occ=0.000000D+00  E= 4.417141D-01

 Vector  141  Occ=0.000000D+00  E= 4.480585D-01

 Vector  142  Occ=0.000000D+00  E= 4.554419D-01

 Vector  143  Occ=0.000000D+00  E= 4.575060D-01

 Vector  144  Occ=0.000000D+00  E= 4.631987D-01

 Vector  145  Occ=0.000000D+00  E= 4.681287D-01

 Vector  146  Occ=0.000000D+00  E= 4.727171D-01

 Vector  147  Occ=0.000000D+00  E= 4.749485D-01

 Vector  148  Occ=0.000000D+00  E= 4.827475D-01

 Vector  149  Occ=0.000000D+00  E= 4.909812D-01

 Vector  150  Occ=0.000000D+00  E= 4.952669D-01

 Vector  151  Occ=0.000000D+00  E= 4.959234D-01

 Vector  152  Occ=0.000000D+00  E= 5.015478D-01

       Multipole analysis of the density wrt the origin
       ------------------------------------------------

     L   x y z        total         open         nuclear
     -   - - -        -----         ----         -------
     0   0 0 0     -0.000000      0.000000    108.000000

     1   1 0 0     -1.252976      0.000000     -0.000000
     1   0 1 0     -2.844156      0.000000      0.000000
     1   0 0 1     -0.947140      0.000000      0.000000

     2   2 0 0    -59.521177      0.000000    854.142400
     2   1 1 0     -5.163212      0.000000    -24.990214
     2   1 0 1      5.177538      0.000000     10.634389
     2   0 2 0    -64.823913      0.000000   1940.551000
     2   0 1 1     -8.195826      0.000000    -18.929340

 Total times  cpu:     2721.3s     wall:     3238.3s
