 Output coordinates in angstroms (scale by  1.889725989 to convert to a.u.)

  No.       Tag          Charge          X              Y              Z
 ---- ---------------- ---------- -------------- -------------- --------------
    1 H                    1.0000    -3.23965191     3.03679379     0.87296247
    2 C                    6.0000    -2.18182746     2.78137217     0.88604795
    3 H                    1.0000    -1.71113274     3.22336759     1.76341762
    4 H                    1.0000    -1.69689485     3.15397569    -0.01377147
    5 C                    6.0000    -2.02827883     1.28094024     0.95175059
    6 O                    8.0000    -1.45748188     0.75819021     1.90069382
    7 N                    7.0000    -2.53574911     0.58543373    -0.06257411
    8 H                    1.0000    -2.96732252     1.09928204    -0.81265164
    9 C                    6.0000    -2.55055524    -0.87963092    -0.16000280
   10 H                    1.0000    -2.81975395    -1.27302763     0.82222736
   11 C                    6.0000    -3.66655276    -1.27698514    -1.13783363
   12 H                    1.0000    -4.61709181    -0.85122606    -0.81476441
   13 H                    1.0000    -3.42868911    -0.92154414    -2.14159236
   14 H                    1.0000    -3.76233014    -2.36349877    -1.16377259
   15 C                    6.0000    -1.17492124    -1.50092471    -0.51269410
   16 O                    8.0000    -1.07366267    -2.35379049    -1.39337659
   17 N                    7.0000    -0.10268640    -1.06549939     0.15528287
   18 H                    1.0000    -0.26615363    -0.38025704     0.88535505
   19 C                    6.0000     1.29495487    -1.44621236    -0.10878253
   20 H                    1.0000     1.42948066    -1.46172243    -1.19030749
   21 C                    6.0000     2.22436925    -0.35791889     0.45752590
   22 H                    1.0000     2.18164003    -0.39663024     1.54669468
   23 H                    1.0000     3.25037587    -0.58511156     0.16309268
   24 C                    6.0000     1.90868650     1.05573221    -0.00405503
   25 C                    6.0000     2.06836233     1.40910883    -1.35784290
   26 H                    1.0000     2.41550569     0.67419717    -2.06985858
   27 C                    6.0000     1.78329087     2.71804415    -1.78656729
   28 H                    1.0000     1.91143558     2.98560715    -2.82643986
   29 C                    6.0000     1.34651773     3.68162780    -0.86161823
   30 H                    1.0000     1.13892289     4.69072048    -1.18908173
   31 C                    6.0000     1.18974619     3.33432565     0.49135365
   32 H                    1.0000     0.86088870     4.07503300     1.20620425
   33 C                    6.0000     1.46432458     2.02284056     0.91889727
   34 H                    1.0000     1.33611657     1.76033421     1.95942268
   35 C                    6.0000     1.67469888    -2.86427926     0.38249108
   36 O                    8.0000     2.75563146    -3.09142893     0.91255597
   37 N                    7.0000     0.79523353    -3.84655561     0.24518902
   38 H                    1.0000     1.04479350    -4.76378349     0.57131605
   39 H                    1.0000    -0.07051431    -3.66816911    -0.24474252

         Total SCF energy =   -929.346539096900

 Vector  127  Occ=0.000000D+00  E= 2.112392D-01

 Vector  128  Occ=0.000000D+00  E= 2.136686D-01

 Vector  129  Occ=0.000000D+00  E= 2.158176D-01

 Vector  130  Occ=0.000000D+00  E= 2.162559D-01

 Vector  131  Occ=0.000000D+00  E= 2.211228D-01

 Vector  132  Occ=0.000000D+00  E= 2.228954D-01

 Vector  133  Occ=0.000000D+00  E= 2.266566D-01

 Vector  134  Occ=0.000000D+00  E= 2.292163D-01

 Vector  135  Occ=0.000000D+00  E= 2.335206D-01

 Vector  136  Occ=0.000000D+00  E= 2.376419D-01

 Vector  137  Occ=0.000000D+00  E= 2.423390D-01

 Vector  138  Occ=0.000000D+00  E= 2.432475D-01

 Vector  139  Occ=0.000000D+00  E= 2.484424D-01

 Vector  140  Occ=0.000000D+00  E= 2.536756D-01

 Vector  141  Occ=0.000000D+00  E= 2.586280D-01

 Vector  142  Occ=0.000000D+00  E= 2.589252D-01

 Vector  143  Occ=0.000000D+00  E= 2.689057D-01

 Vector  144  Occ=0.000000D+00  E= 2.745620D-01

 Vector  145  Occ=0.000000D+00  E= 2.806363D-01

 Vector  146  Occ=0.000000D+00  E= 2.864259D-01

 Vector  147  Occ=0.000000D+00  E= 2.944902D-01

 Vector  148  Occ=0.000000D+00  E= 2.965751D-01

 Vector  149  Occ=0.000000D+00  E= 3.028010D-01

 Vector  150  Occ=0.000000D+00  E= 3.092848D-01

 Vector  151  Occ=0.000000D+00  E= 3.102941D-01

 Vector  152  Occ=0.000000D+00  E= 3.130217D-01

 Vector  153  Occ=0.000000D+00  E= 3.179520D-01

 Vector  154  Occ=0.000000D+00  E= 3.210600D-01

 Vector  155  Occ=0.000000D+00  E= 3.227601D-01

 Vector  156  Occ=0.000000D+00  E= 3.270383D-01

 Vector  157  Occ=0.000000D+00  E= 3.317209D-01

 Vector  158  Occ=0.000000D+00  E= 3.320089D-01

 Vector  159  Occ=0.000000D+00  E= 3.348731D-01

 Vector  160  Occ=0.000000D+00  E= 3.403447D-01

 Vector  161  Occ=0.000000D+00  E= 3.442706D-01

 Vector  162  Occ=0.000000D+00  E= 3.476848D-01

 Vector  163  Occ=0.000000D+00  E= 3.567925D-01

 Vector  164  Occ=0.000000D+00  E= 3.582883D-01

 Vector  165  Occ=0.000000D+00  E= 3.622409D-01

 Vector  166  Occ=0.000000D+00  E= 3.629688D-01

 Vector  167  Occ=0.000000D+00  E= 3.705206D-01

 Vector  168  Occ=0.000000D+00  E= 3.733207D-01

 Vector  169  Occ=0.000000D+00  E= 3.764116D-01

 Vector  170  Occ=0.000000D+00  E= 3.771612D-01

 Vector  171  Occ=0.000000D+00  E= 3.814210D-01

 Vector  172  Occ=0.000000D+00  E= 3.865724D-01

 Vector  173  Occ=0.000000D+00  E= 3.881305D-01

 Vector  174  Occ=0.000000D+00  E= 3.902817D-01

 Vector  175  Occ=0.000000D+00  E= 3.937278D-01

 Vector  176  Occ=0.000000D+00  E= 3.959132D-01

 Vector  177  Occ=0.000000D+00  E= 3.988869D-01

 Vector  178  Occ=0.000000D+00  E= 4.015808D-01

 Vector  179  Occ=0.000000D+00  E= 4.060539D-01

 Vector  180  Occ=0.000000D+00  E= 4.101452D-01

 Vector  181  Occ=0.000000D+00  E= 4.151156D-01

 Vector  182  Occ=0.000000D+00  E= 4.187092D-01

 Vector  183  Occ=0.000000D+00  E= 4.199023D-01

 Vector  184  Occ=0.000000D+00  E= 4.238085D-01

 Vector  185  Occ=0.000000D+00  E= 4.254771D-01

 Vector  186  Occ=0.000000D+00  E= 4.275020D-01

 Vector  187  Occ=0.000000D+00  E= 4.303534D-01

 Vector  188  Occ=0.000000D+00  E= 4.352362D-01

 Vector  189  Occ=0.000000D+00  E= 4.385939D-01

 Vector  190  Occ=0.000000D+00  E= 4.395350D-01

 Vector  191  Occ=0.000000D+00  E= 4.436729D-01

 Vector  192  Occ=0.000000D+00  E= 4.491838D-01

 Vector  193  Occ=0.000000D+00  E= 4.510117D-01

 Vector  194  Occ=0.000000D+00  E= 4.526865D-01

 Vector  195  Occ=0.000000D+00  E= 4.558285D-01

 Vector  196  Occ=0.000000D+00  E= 4.614125D-01

 Vector  197  Occ=0.000000D+00  E= 4.670392D-01

 Vector  198  Occ=0.000000D+00  E= 4.706899D-01

 Vector  199  Occ=0.000000D+00  E= 4.744688D-01

 Vector  200  Occ=0.000000D+00  E= 4.754022D-01

 Vector  201  Occ=0.000000D+00  E= 4.796276D-01

 Vector  202  Occ=0.000000D+00  E= 4.867361D-01

 Vector  203  Occ=0.000000D+00  E= 4.879429D-01

 Vector  204  Occ=0.000000D+00  E= 4.916697D-01

 Vector  205  Occ=0.000000D+00  E= 4.954577D-01

 Vector  206  Occ=0.000000D+00  E= 5.035719D-01

       Multipole analysis of the density wrt the origin
       ------------------------------------------------

     L   x y z        total         open         nuclear
     -   - - -        -----         ----         -------
     0   0 0 0     -0.000000      0.000000    148.000000

     1   1 0 0     -2.244177      0.000000      0.000000
     1   0 1 0      1.689035      0.000000      0.000000
     1   0 0 1     -0.815572      0.000000      0.000000

     2   2 0 0    -89.805481      0.000000   2089.974015
     2   1 1 0      3.210766      0.000000      7.771313
     2   1 0 1     -2.857404      0.000000      7.664859
     2   0 2 0    -85.676456      0.000000   2682.254611
     2   0 1 1     -1.690892      0.000000      6.252200

 Total times  cpu:     7900.9s     wall:     8013.5s
