 Output coordinates in angstroms (scale by  1.889725989 to convert to a.u.)

  No.       Tag          Charge          X              Y              Z
 ---- ---------------- ---------- -------------- -------------- --------------
    1 H                    1.0000    -0.97922792    -4.63682412     1.86507428
    2 C                    6.0000    -0.73436359    -4.92261835     0.84349604
    3 H                    1.0000    -1.64612674    -5.07583007     0.27070364
    4 H                    1.0000    -0.14873979    -5.84163377     0.85133262
    5 C                    6.0000     0.08329433    -3.82758087     0.19951587
    6 O                    8.0000     1.21187172    -4.06246300    -0.20934531
    7 N                    7.0000    -0.48899926    -2.62814219     0.11623988
    8 H                    1.0000    -1.41287565    -2.50525449     0.50195485
    9 C                    6.0000     0.14311588    -1.44471662    -0.46823884
   10 H                    1.0000     1.22001927    -1.51714298    -0.31181786
   11 C                    6.0000    -0.13315435    -1.44125304    -1.98043881
   12 H                    1.0000     0.27510929    -2.34754172    -2.43104132
   13 H                    1.0000    -1.20778169    -1.40343111    -2.16198653
   14 H                    1.0000     0.33698535    -0.57590200    -2.44722918
   15 C                    6.0000    -0.37451916    -0.15460097     0.20547072
   16 O                    8.0000    -1.50803838    -0.14761804     0.69321494
   17 N                    7.0000     0.41005598     0.94447246     0.23157506
   18 C                    6.0000     1.78559165     1.02556729    -0.25103683
   19 H                    1.0000     1.86218126     0.73090525    -1.29749433
   20 H                    1.0000     2.42327220     0.39149508     0.36631716
   21 C                    6.0000     2.21003455     2.48577681    -0.08856716
   22 H                    1.0000     1.95810055     3.04604825    -0.98976979
   23 H                    1.0000     3.27338972     2.57512607     0.13567044
   24 C                    6.0000     1.34149124     2.95817408     1.07661065
   25 H                    1.0000     1.23404269     4.04339044     1.09587898
   26 H                    1.0000     1.77750557     2.61287783     2.01541787
   27 C                    6.0000     0.01623441     2.22398655     0.82985366
   28 H                    1.0000    -0.47002308     2.04799742     1.79063328
   29 C                    6.0000    -0.97236639     3.00618997    -0.06273318
   30 O                    8.0000    -0.67087077     4.06942149    -0.59074845
   31 N                    7.0000    -2.16929381     2.47880108    -0.27562450
   32 H                    1.0000    -2.39707091     1.58287717     0.13447663
   33 H                    1.0000    -2.81695249     2.97865053    -0.86201580

         Total SCF energy =   -776.686911746784

 Vector   94  Occ=0.000000D+00  E= 1.673049D-01

 Vector   95  Occ=0.000000D+00  E= 1.742117D-01

 Vector   96  Occ=0.000000D+00  E= 1.786709D-01

 Vector   97  Occ=0.000000D+00  E= 1.799763D-01

 Vector   98  Occ=0.000000D+00  E= 1.811499D-01

 Vector   99  Occ=0.000000D+00  E= 1.834103D-01

 Vector  100  Occ=0.000000D+00  E= 1.859337D-01

 Vector  101  Occ=0.000000D+00  E= 1.884982D-01

 Vector  102  Occ=0.000000D+00  E= 1.945202D-01

 Vector  103  Occ=0.000000D+00  E= 1.976447D-01

 Vector  104  Occ=0.000000D+00  E= 2.037038D-01

 Vector  105  Occ=0.000000D+00  E= 2.051887D-01

 Vector  106  Occ=0.000000D+00  E= 2.102577D-01

 Vector  107  Occ=0.000000D+00  E= 2.131395D-01

 Vector  108  Occ=0.000000D+00  E= 2.158601D-01

 Vector  109  Occ=0.000000D+00  E= 2.184750D-01

 Vector  110  Occ=0.000000D+00  E= 2.209568D-01

 Vector  111  Occ=0.000000D+00  E= 2.263376D-01

 Vector  112  Occ=0.000000D+00  E= 2.282492D-01

 Vector  113  Occ=0.000000D+00  E= 2.336446D-01

 Vector  114  Occ=0.000000D+00  E= 2.400600D-01

 Vector  115  Occ=0.000000D+00  E= 2.467991D-01

 Vector  116  Occ=0.000000D+00  E= 2.519320D-01

 Vector  117  Occ=0.000000D+00  E= 2.590165D-01

 Vector  118  Occ=0.000000D+00  E= 2.659364D-01

 Vector  119  Occ=0.000000D+00  E= 2.699215D-01

 Vector  120  Occ=0.000000D+00  E= 2.718181D-01

 Vector  121  Occ=0.000000D+00  E= 2.839975D-01

 Vector  122  Occ=0.000000D+00  E= 2.949724D-01

 Vector  123  Occ=0.000000D+00  E= 2.988095D-01

 Vector  124  Occ=0.000000D+00  E= 3.004005D-01

 Vector  125  Occ=0.000000D+00  E= 3.109515D-01

 Vector  126  Occ=0.000000D+00  E= 3.119143D-01

 Vector  127  Occ=0.000000D+00  E= 3.128464D-01

 Vector  128  Occ=0.000000D+00  E= 3.172801D-01

 Vector  129  Occ=0.000000D+00  E= 3.237231D-01

 Vector  130  Occ=0.000000D+00  E= 3.285186D-01

 Vector  131  Occ=0.000000D+00  E= 3.321715D-01

 Vector  132  Occ=0.000000D+00  E= 3.328900D-01

 Vector  133  Occ=0.000000D+00  E= 3.410000D-01

 Vector  134  Occ=0.000000D+00  E= 3.416681D-01

 Vector  135  Occ=0.000000D+00  E= 3.490034D-01

 Vector  136  Occ=0.000000D+00  E= 3.552086D-01

 Vector  137  Occ=0.000000D+00  E= 3.603584D-01

 Vector  138  Occ=0.000000D+00  E= 3.674568D-01

 Vector  139  Occ=0.000000D+00  E= 3.689572D-01

 Vector  140  Occ=0.000000D+00  E= 3.700120D-01

 Vector  141  Occ=0.000000D+00  E= 3.741308D-01

 Vector  142  Occ=0.000000D+00  E= 3.782627D-01

 Vector  143  Occ=0.000000D+00  E= 3.824113D-01

 Vector  144  Occ=0.000000D+00  E= 3.847876D-01

 Vector  145  Occ=0.000000D+00  E= 3.869499D-01

 Vector  146  Occ=0.000000D+00  E= 3.904978D-01

 Vector  147  Occ=0.000000D+00  E= 3.938158D-01

 Vector  148  Occ=0.000000D+00  E= 4.002607D-01

 Vector  149  Occ=0.000000D+00  E= 4.027889D-01

 Vector  150  Occ=0.000000D+00  E= 4.070974D-01

 Vector  151  Occ=0.000000D+00  E= 4.087504D-01

 Vector  152  Occ=0.000000D+00  E= 4.184791D-01

 Vector  153  Occ=0.000000D+00  E= 4.209914D-01

 Vector  154  Occ=0.000000D+00  E= 4.269468D-01

 Vector  155  Occ=0.000000D+00  E= 4.292905D-01

 Vector  156  Occ=0.000000D+00  E= 4.331216D-01

 Vector  157  Occ=0.000000D+00  E= 4.381988D-01

 Vector  158  Occ=0.000000D+00  E= 4.411958D-01

 Vector  159  Occ=0.000000D+00  E= 4.478561D-01

 Vector  160  Occ=0.000000D+00  E= 4.516436D-01

 Vector  161  Occ=0.000000D+00  E= 4.537577D-01

 Vector  162  Occ=0.000000D+00  E= 4.588799D-01

 Vector  163  Occ=0.000000D+00  E= 4.606166D-01

 Vector  164  Occ=0.000000D+00  E= 4.651960D-01

 Vector  165  Occ=0.000000D+00  E= 4.684322D-01

 Vector  166  Occ=0.000000D+00  E= 4.727514D-01

 Vector  167  Occ=0.000000D+00  E= 4.775733D-01

 Vector  168  Occ=0.000000D+00  E= 4.813184D-01

 Vector  169  Occ=0.000000D+00  E= 4.891042D-01

 Vector  170  Occ=0.000000D+00  E= 4.912768D-01

 Vector  171  Occ=0.000000D+00  E= 4.955114D-01

 Vector  172  Occ=0.000000D+00  E= 4.994694D-01

 Vector  173  Occ=0.000000D+00  E= 5.073218D-01

       Multipole analysis of the density wrt the origin
       ------------------------------------------------

     L   x y z        total         open         nuclear
     -   - - -        -----         ----         -------
     0   0 0 0     -0.000000      0.000000    122.000000

     1   1 0 0     -0.344967      0.000000     -0.000000
     1   0 1 0     -0.280223      0.000000     -0.000000
     1   0 0 1      0.416699      0.000000      0.000000

     2   2 0 0    -68.631436      0.000000    678.101374
     2   1 1 0     11.830324      0.000000     52.112680
     2   1 0 1      2.483381      0.000000      1.378934
     2   0 2 0    -89.149355      0.000000   3405.472504
     2   0 1 1      1.235632      0.000000      3.417197

 Total times  cpu:     4537.5s     wall:     4597.8s
