 Output coordinates in angstroms (scale by  1.889725989 to convert to a.u.)

  No.       Tag          Charge          X              Y              Z
 ---- ---------------- ---------- -------------- -------------- --------------
    1 H                    1.0000     0.50999835     5.84124088    -1.69765594
    2 C                    6.0000     0.25930344     5.50518556    -0.69205419
    3 H                    1.0000    -0.81084157     5.62117391    -0.52690472
    4 H                    1.0000     0.81683657     6.08906749     0.03834961
    5 C                    6.0000     0.62783953     4.04697767    -0.55831972
    6 O                    8.0000     1.12052010     3.44713210    -1.50420986
    7 N                    7.0000     0.39624386     3.47774956     0.62214959
    8 H                    1.0000    -0.04576424     4.02657093     1.33966540
    9 C                    6.0000     0.58286962     2.04796327     0.86531827
   10 H                    1.0000     1.53716658     1.74600057     0.42869733
   11 C                    6.0000     0.64955578     1.80250783     2.37775325
   12 H                    1.0000     0.83488945     0.74555779     2.56991733
   13 H                    1.0000     1.46146651     2.38799042     2.81175451
   14 H                    1.0000    -0.29391512     2.08917507     2.84433826
   15 C                    6.0000    -0.52530654     1.20487437     0.20198149
   16 O                    8.0000    -1.68614202     1.61128330     0.15100339
   17 N                    7.0000    -0.17997195    -0.00598534    -0.24089186
   18 H                    1.0000     0.78490988    -0.29606266    -0.12674633
   19 C                    6.0000    -1.05259563    -0.97059921    -0.93252543
   20 H                    1.0000    -1.63452934    -0.42705211    -1.67665492
   21 C                    6.0000    -0.14668447    -1.96858425    -1.67435076
   22 H                    1.0000    -0.76038713    -2.68339918    -2.22502551
   23 H                    1.0000     0.45373475    -1.42422874    -2.40395808
   24 C                    6.0000     0.79200867    -2.71737273    -0.75873457
   25 N                    7.0000     1.94084222    -2.18114229    -0.16834200
   26 C                    6.0000     2.44586502    -3.15748602     0.59904245
   27 H                    1.0000     3.34718536    -3.06466293     1.19228736
   28 N                    7.0000     1.67411246    -4.25644134     0.53529931
   29 H                    1.0000     1.83619535    -5.11854375     1.03493176
   30 C                    6.0000     0.62093610    -3.99459777    -0.31302462
   31 H                    1.0000    -0.20739182    -4.64457820    -0.56096270
   32 C                    6.0000    -2.08145485    -1.67805147    -0.02091093
   33 O                    8.0000    -2.40614568    -2.84567117    -0.20827451
   34 N                    7.0000    -2.60588745    -1.00790206     0.99516594
   35 H                    1.0000    -2.39096357    -0.02648369     1.09740441
   36 H                    1.0000    -3.27584310    -1.47257289     1.58369159

         Total SCF energy =   -923.474205739606

 Vector  116  Occ=0.000000D+00  E= 1.955480D-01

 Vector  117  Occ=0.000000D+00  E= 1.974765D-01

 Vector  118  Occ=0.000000D+00  E= 2.001692D-01

 Vector  119  Occ=0.000000D+00  E= 2.026730D-01

 Vector  120  Occ=0.000000D+00  E= 2.056174D-01

 Vector  121  Occ=0.000000D+00  E= 2.094666D-01

 Vector  122  Occ=0.000000D+00  E= 2.129626D-01

 Vector  123  Occ=0.000000D+00  E= 2.216522D-01

 Vector  124  Occ=0.000000D+00  E= 2.226736D-01

 Vector  125  Occ=0.000000D+00  E= 2.281897D-01

 Vector  126  Occ=0.000000D+00  E= 2.301628D-01

 Vector  127  Occ=0.000000D+00  E= 2.332712D-01

 Vector  128  Occ=0.000000D+00  E= 2.404839D-01

 Vector  129  Occ=0.000000D+00  E= 2.429969D-01

 Vector  130  Occ=0.000000D+00  E= 2.490209D-01

 Vector  131  Occ=0.000000D+00  E= 2.590234D-01

 Vector  132  Occ=0.000000D+00  E= 2.601535D-01

 Vector  133  Occ=0.000000D+00  E= 2.614466D-01

 Vector  134  Occ=0.000000D+00  E= 2.636223D-01

 Vector  135  Occ=0.000000D+00  E= 2.691111D-01

 Vector  136  Occ=0.000000D+00  E= 2.706027D-01

 Vector  137  Occ=0.000000D+00  E= 2.747184D-01

 Vector  138  Occ=0.000000D+00  E= 2.782230D-01

 Vector  139  Occ=0.000000D+00  E= 2.902977D-01

 Vector  140  Occ=0.000000D+00  E= 2.929300D-01

 Vector  141  Occ=0.000000D+00  E= 2.969099D-01

 Vector  142  Occ=0.000000D+00  E= 2.989539D-01

 Vector  143  Occ=0.000000D+00  E= 3.062467D-01

 Vector  144  Occ=0.000000D+00  E= 3.178564D-01

 Vector  145  Occ=0.000000D+00  E= 3.231379D-01

 Vector  146  Occ=0.000000D+00  E= 3.240968D-01

 Vector  147  Occ=0.000000D+00  E= 3.326759D-01

 Vector  148  Occ=0.000000D+00  E= 3.360992D-01

 Vector  149  Occ=0.000000D+00  E= 3.367974D-01

 Vector  150  Occ=0.000000D+00  E= 3.441040D-01

 Vector  151  Occ=0.000000D+00  E= 3.465654D-01

 Vector  152  Occ=0.000000D+00  E= 3.472593D-01

 Vector  153  Occ=0.000000D+00  E= 3.559189D-01

 Vector  154  Occ=0.000000D+00  E= 3.587138D-01

 Vector  155  Occ=0.000000D+00  E= 3.594997D-01

 Vector  156  Occ=0.000000D+00  E= 3.609259D-01

 Vector  157  Occ=0.000000D+00  E= 3.653181D-01

 Vector  158  Occ=0.000000D+00  E= 3.693527D-01

 Vector  159  Occ=0.000000D+00  E= 3.736918D-01

 Vector  160  Occ=0.000000D+00  E= 3.753834D-01

 Vector  161  Occ=0.000000D+00  E= 3.795219D-01

 Vector  162  Occ=0.000000D+00  E= 3.813974D-01

 Vector  163  Occ=0.000000D+00  E= 3.854347D-01

 Vector  164  Occ=0.000000D+00  E= 3.868243D-01

 Vector  165  Occ=0.000000D+00  E= 3.915894D-01

 Vector  166  Occ=0.000000D+00  E= 3.971410D-01

 Vector  167  Occ=0.000000D+00  E= 4.008461D-01

 Vector  168  Occ=0.000000D+00  E= 4.014098D-01

 Vector  169  Occ=0.000000D+00  E= 4.038054D-01

 Vector  170  Occ=0.000000D+00  E= 4.099026D-01

 Vector  171  Occ=0.000000D+00  E= 4.115958D-01

 Vector  172  Occ=0.000000D+00  E= 4.149286D-01

 Vector  173  Occ=0.000000D+00  E= 4.219363D-01

 Vector  174  Occ=0.000000D+00  E= 4.248470D-01

 Vector  175  Occ=0.000000D+00  E= 4.263429D-01

 Vector  176  Occ=0.000000D+00  E= 4.295641D-01

 Vector  177  Occ=0.000000D+00  E= 4.324972D-01

 Vector  178  Occ=0.000000D+00  E= 4.364014D-01

 Vector  179  Occ=0.000000D+00  E= 4.393026D-01

 Vector  180  Occ=0.000000D+00  E= 4.431786D-01

 Vector  181  Occ=0.000000D+00  E= 4.444332D-01

 Vector  182  Occ=0.000000D+00  E= 4.479013D-01

 Vector  183  Occ=0.000000D+00  E= 4.533548D-01

 Vector  184  Occ=0.000000D+00  E= 4.579988D-01

 Vector  185  Occ=0.000000D+00  E= 4.623970D-01

 Vector  186  Occ=0.000000D+00  E= 4.628986D-01

 Vector  187  Occ=0.000000D+00  E= 4.722733D-01

 Vector  188  Occ=0.000000D+00  E= 4.765485D-01

 Vector  189  Occ=0.000000D+00  E= 4.825260D-01

 Vector  190  Occ=0.000000D+00  E= 4.860391D-01

 Vector  191  Occ=0.000000D+00  E= 4.883713D-01

 Vector  192  Occ=0.000000D+00  E= 4.924572D-01

 Vector  193  Occ=0.000000D+00  E= 4.960377D-01

 Vector  194  Occ=0.000000D+00  E= 4.987258D-01

 Vector  195  Occ=0.000000D+00  E= 5.005631D-01

       Multipole analysis of the density wrt the origin
       ------------------------------------------------

     L   x y z        total         open         nuclear
     -   - - -        -----         ----         -------
     0   0 0 0     -0.000000      0.000000    142.000000

     1   1 0 0      0.934740      0.000000     -0.000000
     1   0 1 0     -0.379816      0.000000      0.000000
     1   0 0 1      2.231221      0.000000     -0.000000

     2   2 0 0    -88.734171      0.000000   1070.232769
     2   1 1 0    -11.514024      0.000000     -4.277756
     2   1 0 1      5.016936      0.000000     12.561506
     2   0 2 0    -65.372787      0.000000   4332.294618
     2   0 1 1      3.075050      0.000000     17.168854

 Total times  cpu:     5365.8s     wall:     5486.0s
