 Output coordinates in angstroms (scale by  1.889725989 to convert to a.u.)

  No.       Tag          Charge          X              Y              Z
 ---- ---------------- ---------- -------------- -------------- --------------
    1 H                    1.0000     3.64065958    -2.15955187     1.25116425
    2 C                    6.0000     2.56484468    -2.00027279     1.29430908
    3 H                    1.0000     2.18156609    -2.35390302     2.25092613
    4 H                    1.0000     2.07802774    -2.53638714     0.48290001
    5 C                    6.0000     2.27233367    -0.52497025     1.16621641
    6 O                    8.0000     1.73532910     0.08401158     2.08292914
    7 N                    7.0000     2.63238166     0.05384287     0.02300084
    8 H                    1.0000     3.04020058    -0.52883533    -0.68906294
    9 C                    6.0000     2.49638230     1.48406190    -0.27689864
   10 H                    1.0000     2.77249669     2.04043626     0.62001463
   11 C                    6.0000     3.51338975     1.83687990    -1.37368727
   12 H                    1.0000     3.49260023     2.91118147    -1.56099699
   13 H                    1.0000     4.51848523     1.55695897    -1.05528914
   14 H                    1.0000     3.26422974     1.31291286    -2.29806373
   15 C                    6.0000     1.04681520     1.90658746    -0.62304366
   16 O                    8.0000     0.80542552     2.56376061    -1.63437124
   17 N                    7.0000     0.06965606     1.51255418     0.19760839
   18 H                    1.0000     0.34561713     0.97777990     1.01567621
   19 C                    6.0000    -1.37520023     1.66293123    -0.04573100
   20 H                    1.0000    -1.55198322     1.40830993    -1.09079070
   21 C                    6.0000    -2.14250205     0.63922447     0.80833070
   22 H                    1.0000    -2.17535760     1.00989861     1.83493978
   23 H                    1.0000    -3.17086629     0.58697738     0.44933736
   24 C                    6.0000    -1.58642405    -0.75579733     0.83555990
   25 C                    6.0000    -1.22632716    -1.42596801     1.95279151
   26 H                    1.0000    -1.28579576    -1.02361530     2.95818237
   27 N                    7.0000    -0.78149027    -2.68854932     1.61886849
   28 H                    1.0000    -0.47915960    -3.36789341     2.30117837
   29 C                    6.0000    -0.81140804    -2.89233489     0.25615121
   30 C                    6.0000    -0.44719059    -3.97721903    -0.55416789
   31 H                    1.0000    -0.06359552    -4.88367774    -0.11355419
   32 C                    6.0000    -0.59531913    -3.86688832    -1.94720309
   33 H                    1.0000    -0.32482292    -4.69378147    -2.58993051
   34 C                    6.0000    -1.10462167    -2.68080539    -2.50551948
   35 H                    1.0000    -1.22118851    -2.60058482    -3.57801882
   36 C                    6.0000    -1.46909124    -1.59845727    -1.67972443
   37 H                    1.0000    -1.86192057    -0.69597552    -2.12378953
   38 C                    6.0000    -1.33151271    -1.67315820    -0.27662859
   39 C                    6.0000    -1.92483447     3.09847733     0.12763456
   40 O                    8.0000    -3.04211846     3.30297767     0.58976669
   41 N                    7.0000    -1.15929913     4.12659679    -0.20815558
   42 H                    1.0000    -1.52327560     5.05648613    -0.08735845
   43 H                    1.0000    -0.26975053     3.95240876    -0.65365173

         Total SCF energy =  -1060.126748904152

 Vector  149  Occ=0.000000D+00  E= 2.373758D-01

 Vector  150  Occ=0.000000D+00  E= 2.383665D-01

 Vector  151  Occ=0.000000D+00  E= 2.395485D-01

 Vector  152  Occ=0.000000D+00  E= 2.444917D-01

 Vector  153  Occ=0.000000D+00  E= 2.474140D-01

 Vector  154  Occ=0.000000D+00  E= 2.497804D-01

 Vector  155  Occ=0.000000D+00  E= 2.532314D-01

 Vector  156  Occ=0.000000D+00  E= 2.580421D-01

 Vector  157  Occ=0.000000D+00  E= 2.657049D-01

 Vector  158  Occ=0.000000D+00  E= 2.679068D-01

 Vector  159  Occ=0.000000D+00  E= 2.731995D-01

 Vector  160  Occ=0.000000D+00  E= 2.787070D-01

 Vector  161  Occ=0.000000D+00  E= 2.827046D-01

 Vector  162  Occ=0.000000D+00  E= 2.882754D-01

 Vector  163  Occ=0.000000D+00  E= 2.914541D-01

 Vector  164  Occ=0.000000D+00  E= 2.936338D-01

 Vector  165  Occ=0.000000D+00  E= 2.984784D-01

 Vector  166  Occ=0.000000D+00  E= 2.994009D-01

 Vector  167  Occ=0.000000D+00  E= 3.053156D-01

 Vector  168  Occ=0.000000D+00  E= 3.076603D-01

 Vector  169  Occ=0.000000D+00  E= 3.120463D-01

 Vector  170  Occ=0.000000D+00  E= 3.175615D-01

 Vector  171  Occ=0.000000D+00  E= 3.205797D-01

 Vector  172  Occ=0.000000D+00  E= 3.224241D-01

 Vector  173  Occ=0.000000D+00  E= 3.263834D-01

 Vector  174  Occ=0.000000D+00  E= 3.305945D-01

 Vector  175  Occ=0.000000D+00  E= 3.335313D-01

 Vector  176  Occ=0.000000D+00  E= 3.373353D-01

 Vector  177  Occ=0.000000D+00  E= 3.393093D-01

 Vector  178  Occ=0.000000D+00  E= 3.411390D-01

 Vector  179  Occ=0.000000D+00  E= 3.456779D-01

 Vector  180  Occ=0.000000D+00  E= 3.481717D-01

 Vector  181  Occ=0.000000D+00  E= 3.536613D-01

 Vector  182  Occ=0.000000D+00  E= 3.552296D-01

 Vector  183  Occ=0.000000D+00  E= 3.604225D-01

 Vector  184  Occ=0.000000D+00  E= 3.639430D-01

 Vector  185  Occ=0.000000D+00  E= 3.664300D-01

 Vector  186  Occ=0.000000D+00  E= 3.707793D-01

 Vector  187  Occ=0.000000D+00  E= 3.725588D-01

 Vector  188  Occ=0.000000D+00  E= 3.743590D-01

 Vector  189  Occ=0.000000D+00  E= 3.761029D-01

 Vector  190  Occ=0.000000D+00  E= 3.810040D-01

 Vector  191  Occ=0.000000D+00  E= 3.836967D-01

 Vector  192  Occ=0.000000D+00  E= 3.874888D-01

 Vector  193  Occ=0.000000D+00  E= 3.892213D-01

 Vector  194  Occ=0.000000D+00  E= 3.925424D-01

 Vector  195  Occ=0.000000D+00  E= 3.931385D-01

 Vector  196  Occ=0.000000D+00  E= 3.970002D-01

 Vector  197  Occ=0.000000D+00  E= 4.023498D-01

 Vector  198  Occ=0.000000D+00  E= 4.047571D-01

 Vector  199  Occ=0.000000D+00  E= 4.069479D-01

 Vector  200  Occ=0.000000D+00  E= 4.089569D-01

 Vector  201  Occ=0.000000D+00  E= 4.140149D-01

 Vector  202  Occ=0.000000D+00  E= 4.148769D-01

 Vector  203  Occ=0.000000D+00  E= 4.165380D-01

 Vector  204  Occ=0.000000D+00  E= 4.212398D-01

 Vector  205  Occ=0.000000D+00  E= 4.272476D-01

 Vector  206  Occ=0.000000D+00  E= 4.287561D-01

 Vector  207  Occ=0.000000D+00  E= 4.325187D-01

 Vector  208  Occ=0.000000D+00  E= 4.348318D-01

 Vector  209  Occ=0.000000D+00  E= 4.372873D-01

 Vector  210  Occ=0.000000D+00  E= 4.420364D-01

 Vector  211  Occ=0.000000D+00  E= 4.447554D-01

 Vector  212  Occ=0.000000D+00  E= 4.468160D-01

 Vector  213  Occ=0.000000D+00  E= 4.503656D-01

 Vector  214  Occ=0.000000D+00  E= 4.521214D-01

 Vector  215  Occ=0.000000D+00  E= 4.570616D-01

 Vector  216  Occ=0.000000D+00  E= 4.591692D-01

 Vector  217  Occ=0.000000D+00  E= 4.628209D-01

 Vector  218  Occ=0.000000D+00  E= 4.634366D-01

 Vector  219  Occ=0.000000D+00  E= 4.708583D-01

 Vector  220  Occ=0.000000D+00  E= 4.725927D-01

 Vector  221  Occ=0.000000D+00  E= 4.756804D-01

 Vector  222  Occ=0.000000D+00  E= 4.797104D-01

 Vector  223  Occ=0.000000D+00  E= 4.827714D-01

 Vector  224  Occ=0.000000D+00  E= 4.876339D-01

 Vector  225  Occ=0.000000D+00  E= 4.898272D-01

 Vector  226  Occ=0.000000D+00  E= 4.953996D-01

 Vector  227  Occ=0.000000D+00  E= 4.973575D-01

 Vector  228  Occ=0.000000D+00  E= 5.019843D-01

       Multipole analysis of the density wrt the origin
       ------------------------------------------------

     L   x y z        total         open         nuclear
     -   - - -        -----         ----         -------
     0   0 0 0      0.000000      0.000000    168.000000

     1   1 0 0      2.456553      0.000000     -0.000000
     1   0 1 0     -1.851772      0.000000      0.000000
     1   0 0 1      0.107083      0.000000     -0.000000

     2   2 0 0   -105.391224      0.000000   2094.921977
     2   1 1 0      4.142157      0.000000      2.933407
     2   1 0 1     -0.303377      0.000000    -11.543146
     2   0 2 0    -96.477543      0.000000   3405.869279
     2   0 1 1     -4.488651      0.000000     -9.739047

 Total times  cpu:    35614.6s     wall:    35764.8s
