 Output coordinates in angstroms (scale by  1.889725989 to convert to a.u.)

  No.       Tag          Charge          X              Y              Z
 ---- ---------------- ---------- -------------- -------------- --------------
    1 H                    1.0000     2.78656180    -5.04863948    -0.25860673
    2 C                    6.0000     1.89369035    -5.60743843     0.01647564
    3 H                    1.0000     1.90888938    -5.83369153     1.08088699
    4 H                    1.0000     1.85243008    -6.53440885    -0.55390706
    5 C                    6.0000     0.66945597    -4.78251863    -0.30234016
    6 O                    8.0000    -0.16581458    -5.20137884    -1.09167421
    7 N                    7.0000     0.57025007    -3.60606660     0.31265399
    8 H                    1.0000     1.31909334    -3.31268942     0.92153212
    9 C                    6.0000    -0.52397417    -2.65371618     0.11993656
   10 H                    1.0000    -0.87471880    -2.72223283    -0.91184135
   11 C                    6.0000    -1.68293904    -3.02963616     1.05457906
   12 H                    1.0000    -2.01462176    -4.04644727     0.84121380
   13 H                    1.0000    -1.35685122    -2.96969347     2.09457455
   14 H                    1.0000    -2.52114071    -2.34875593     0.90179144
   15 C                    6.0000    -0.04632955    -1.20938794     0.36244338
   16 O                    8.0000     0.98179704    -0.98863295     1.00023249
   17 N                    7.0000    -0.80449223    -0.22747359    -0.13332125
   18 H                    1.0000    -1.65546819    -0.47052155    -0.62120813
   19 C                    6.0000    -0.52690453     1.20661699     0.01541765
   20 H                    1.0000    -0.05634990     1.37433462     0.98618958
   21 C                    6.0000     0.46112089     1.64540542    -1.08348155
   22 H                    1.0000     1.40389801     1.11581083    -0.93828555
   23 H                    1.0000     0.05895132     1.35845431    -2.05621826
   24 C                    6.0000     0.75561575     3.15117320    -1.11905089
   25 H                    1.0000     1.49621968     3.32860445    -1.89954623
   26 H                    1.0000    -0.15199039     3.68587847    -1.39871208
   27 S                   16.0000     1.39122290     3.84519805     0.43330540
   28 C                    6.0000     1.68337455     5.55344548    -0.09422481
   29 H                    1.0000     0.74853355     6.00082572    -0.43159735
   30 H                    1.0000     2.07658604     6.12943921     0.74457490
   31 H                    1.0000     2.40805099     5.56660105    -0.90833290
   32 C                    6.0000    -1.83858399     2.00474587    -0.01764720
   33 O                    8.0000    -2.79230495     1.61596395    -0.68257949
   34 N                    7.0000    -1.91563038     3.12451849     0.68817866
   35 H                    1.0000    -1.11634789     3.44601850     1.21160511
   36 H                    1.0000    -2.77876119     3.64134121     0.66994464

         Total SCF energy =  -1175.388267710802

 Vector  116  Occ=0.000000D+00  E= 1.981863D-01

 Vector  117  Occ=0.000000D+00  E= 2.008349D-01

 Vector  118  Occ=0.000000D+00  E= 2.066710D-01

 Vector  119  Occ=0.000000D+00  E= 2.080507D-01

 Vector  120  Occ=0.000000D+00  E= 2.117340D-01

 Vector  121  Occ=0.000000D+00  E= 2.127257D-01

 Vector  122  Occ=0.000000D+00  E= 2.140306D-01

 Vector  123  Occ=0.000000D+00  E= 2.177009D-01

 Vector  124  Occ=0.000000D+00  E= 2.208132D-01

 Vector  125  Occ=0.000000D+00  E= 2.267607D-01

 Vector  126  Occ=0.000000D+00  E= 2.294521D-01

 Vector  127  Occ=0.000000D+00  E= 2.304033D-01

 Vector  128  Occ=0.000000D+00  E= 2.340906D-01

 Vector  129  Occ=0.000000D+00  E= 2.422616D-01

 Vector  130  Occ=0.000000D+00  E= 2.450053D-01

 Vector  131  Occ=0.000000D+00  E= 2.506577D-01

 Vector  132  Occ=0.000000D+00  E= 2.531601D-01

 Vector  133  Occ=0.000000D+00  E= 2.620225D-01

 Vector  134  Occ=0.000000D+00  E= 2.678037D-01

 Vector  135  Occ=0.000000D+00  E= 2.703624D-01

 Vector  136  Occ=0.000000D+00  E= 2.779606D-01

 Vector  137  Occ=0.000000D+00  E= 2.788509D-01

 Vector  138  Occ=0.000000D+00  E= 2.826527D-01

 Vector  139  Occ=0.000000D+00  E= 2.862463D-01

 Vector  140  Occ=0.000000D+00  E= 2.945114D-01

 Vector  141  Occ=0.000000D+00  E= 2.998618D-01

 Vector  142  Occ=0.000000D+00  E= 3.092840D-01

 Vector  143  Occ=0.000000D+00  E= 3.106800D-01

 Vector  144  Occ=0.000000D+00  E= 3.149457D-01

 Vector  145  Occ=0.000000D+00  E= 3.187886D-01

 Vector  146  Occ=0.000000D+00  E= 3.232339D-01

 Vector  147  Occ=0.000000D+00  E= 3.266196D-01

 Vector  148  Occ=0.000000D+00  E= 3.293475D-01

 Vector  149  Occ=0.000000D+00  E= 3.311521D-01

 Vector  150  Occ=0.000000D+00  E= 3.355085D-01

 Vector  151  Occ=0.000000D+00  E= 3.437801D-01

 Vector  152  Occ=0.000000D+00  E= 3.493100D-01

 Vector  153  Occ=0.000000D+00  E= 3.550852D-01

 Vector  154  Occ=0.000000D+00  E= 3.565582D-01

 Vector  155  Occ=0.000000D+00  E= 3.614219D-01

 Vector  156  Occ=0.000000D+00  E= 3.643149D-01

 Vector  157  Occ=0.000000D+00  E= 3.686581D-01

 Vector  158  Occ=0.000000D+00  E= 3.699873D-01

 Vector  159  Occ=0.000000D+00  E= 3.738638D-01

 Vector  160  Occ=0.000000D+00  E= 3.816570D-01

 Vector  161  Occ=0.000000D+00  E= 3.875622D-01

 Vector  162  Occ=0.000000D+00  E= 3.901034D-01

 Vector  163  Occ=0.000000D+00  E= 3.928999D-01

 Vector  164  Occ=0.000000D+00  E= 3.945133D-01

 Vector  165  Occ=0.000000D+00  E= 3.954685D-01

 Vector  166  Occ=0.000000D+00  E= 3.996244D-01

 Vector  167  Occ=0.000000D+00  E= 4.024329D-01

 Vector  168  Occ=0.000000D+00  E= 4.060175D-01

 Vector  169  Occ=0.000000D+00  E= 4.094963D-01

 Vector  170  Occ=0.000000D+00  E= 4.131050D-01

 Vector  171  Occ=0.000000D+00  E= 4.148776D-01

 Vector  172  Occ=0.000000D+00  E= 4.182564D-01

 Vector  173  Occ=0.000000D+00  E= 4.231801D-01

 Vector  174  Occ=0.000000D+00  E= 4.283992D-01

 Vector  175  Occ=0.000000D+00  E= 4.354790D-01

 Vector  176  Occ=0.000000D+00  E= 4.395662D-01

 Vector  177  Occ=0.000000D+00  E= 4.409958D-01

 Vector  178  Occ=0.000000D+00  E= 4.443724D-01

 Vector  179  Occ=0.000000D+00  E= 4.474281D-01

 Vector  180  Occ=0.000000D+00  E= 4.482201D-01

 Vector  181  Occ=0.000000D+00  E= 4.517819D-01

 Vector  182  Occ=0.000000D+00  E= 4.531842D-01

 Vector  183  Occ=0.000000D+00  E= 4.591825D-01

 Vector  184  Occ=0.000000D+00  E= 4.634446D-01

 Vector  185  Occ=0.000000D+00  E= 4.658057D-01

 Vector  186  Occ=0.000000D+00  E= 4.709409D-01

 Vector  187  Occ=0.000000D+00  E= 4.725767D-01

 Vector  188  Occ=0.000000D+00  E= 4.761602D-01

 Vector  189  Occ=0.000000D+00  E= 4.817897D-01

 Vector  190  Occ=0.000000D+00  E= 4.830995D-01

 Vector  191  Occ=0.000000D+00  E= 4.853948D-01

 Vector  192  Occ=0.000000D+00  E= 4.927026D-01

 Vector  193  Occ=0.000000D+00  E= 4.936101D-01

 Vector  194  Occ=0.000000D+00  E= 4.957615D-01

 Vector  195  Occ=0.000000D+00  E= 5.031728D-01

       Multipole analysis of the density wrt the origin
       ------------------------------------------------

     L   x y z        total         open         nuclear
     -   - - -        -----         ----         -------
     0   0 0 0     -0.000000      0.000000    140.000000

     1   1 0 0      0.656584      0.000000      0.000000
     1   0 1 0      2.329746      0.000000      0.000000
     1   0 0 1      0.513340      0.000000      0.000000

     2   2 0 0    -87.011671      0.000000    987.402789
     2   1 1 0     -4.895964      0.000000      4.283083
     2   1 0 1     -7.323713      0.000000    -20.771990
     2   0 2 0    -74.312100      0.000000   5992.368255
     2   0 1 1     -8.545510      0.000000    -42.118295

 Total times  cpu:     3969.5s     wall:     4168.9s
