 Output coordinates in angstroms (scale by  1.889725989 to convert to a.u.)

  No.       Tag          Charge          X              Y              Z
 ---- ---------------- ---------- -------------- -------------- --------------
    1 H                    1.0000    -2.72962774     3.69798744     0.18049678
    2 C                    6.0000    -1.68995329     3.67122939     0.50435177
    3 H                    1.0000    -1.64973940     3.55706845     1.58612583
    4 H                    1.0000    -1.19416036     4.59425458     0.20855308
    5 C                    6.0000    -1.00232815     2.49875272    -0.15281422
    6 O                    8.0000    -1.62430717     1.76008199    -0.90416810
    7 N                    7.0000     0.28353762     2.31521799     0.14259945
    8 H                    1.0000     0.71495016     2.96224873     0.78148319
    9 C                    6.0000     1.13321098     1.25561191    -0.41497936
   10 H                    1.0000     0.92100199     1.18760627    -1.48375230
   11 C                    6.0000     2.59708615     1.69413113    -0.26246263
   12 H                    1.0000     2.75088047     2.66353425    -0.73944365
   13 H                    1.0000     2.86008211     1.76336775     0.79426175
   14 H                    1.0000     3.25089972     0.96216404    -0.74051387
   15 C                    6.0000     0.84658036    -0.14886521     0.17621258
   16 O                    8.0000     1.75211344    -0.83077727     0.65260713
   17 N                    7.0000    -0.41830468    -0.58271608     0.16320259
   18 H                    1.0000    -1.10437012     0.02918156    -0.26788265
   19 C                    6.0000    -0.90829257    -1.84098297     0.75133038
   20 H                    1.0000    -0.50533265    -1.93171262     1.75995193
   21 H                    1.0000    -1.99478942    -1.79543866     0.82413361
   22 C                    6.0000    -0.53788850    -3.12244913    -0.01065014
   23 O                    8.0000    -1.35332419    -4.02786937    -0.12419675
   24 N                    7.0000     0.65482453    -3.21858861    -0.58126283
   25 H                    1.0000     0.88015621    -4.05864784    -1.08681609
   26 H                    1.0000     1.33330023    -2.48505681    -0.42824055

         Total SCF energy =   -660.742096596346

 Vector   63  Occ=0.000000D+00  E= 9.816284D-02

 Vector   64  Occ=0.000000D+00  E= 1.024399D-01

 Vector   65  Occ=0.000000D+00  E= 1.084538D-01

 Vector   66  Occ=0.000000D+00  E= 1.183489D-01

 Vector   67  Occ=0.000000D+00  E= 1.245224D-01

 Vector   68  Occ=0.000000D+00  E= 1.325485D-01

 Vector   69  Occ=0.000000D+00  E= 1.340779D-01

 Vector   70  Occ=0.000000D+00  E= 1.435033D-01

 Vector   71  Occ=0.000000D+00  E= 1.466928D-01

 Vector   72  Occ=0.000000D+00  E= 1.471085D-01

 Vector   73  Occ=0.000000D+00  E= 1.528162D-01

 Vector   74  Occ=0.000000D+00  E= 1.569385D-01

 Vector   75  Occ=0.000000D+00  E= 1.602065D-01

 Vector   76  Occ=0.000000D+00  E= 1.622041D-01

 Vector   77  Occ=0.000000D+00  E= 1.657952D-01

 Vector   78  Occ=0.000000D+00  E= 1.672858D-01

 Vector   79  Occ=0.000000D+00  E= 1.713662D-01

 Vector   80  Occ=0.000000D+00  E= 1.759847D-01

 Vector   81  Occ=0.000000D+00  E= 1.786524D-01

 Vector   82  Occ=0.000000D+00  E= 1.823880D-01

 Vector   83  Occ=0.000000D+00  E= 1.840889D-01

 Vector   84  Occ=0.000000D+00  E= 1.868475D-01

 Vector   85  Occ=0.000000D+00  E= 1.893013D-01

 Vector   86  Occ=0.000000D+00  E= 1.953024D-01

 Vector   87  Occ=0.000000D+00  E= 1.988211D-01

 Vector   88  Occ=0.000000D+00  E= 2.059505D-01

 Vector   89  Occ=0.000000D+00  E= 2.130833D-01

 Vector   90  Occ=0.000000D+00  E= 2.148330D-01

 Vector   91  Occ=0.000000D+00  E= 2.213914D-01

 Vector   92  Occ=0.000000D+00  E= 2.280081D-01

 Vector   93  Occ=0.000000D+00  E= 2.428539D-01

 Vector   94  Occ=0.000000D+00  E= 2.448740D-01

 Vector   95  Occ=0.000000D+00  E= 2.495836D-01

 Vector   96  Occ=0.000000D+00  E= 2.506063D-01

 Vector   97  Occ=0.000000D+00  E= 2.599324D-01

 Vector   98  Occ=0.000000D+00  E= 2.665313D-01

 Vector   99  Occ=0.000000D+00  E= 2.702381D-01

 Vector  100  Occ=0.000000D+00  E= 2.858345D-01

 Vector  101  Occ=0.000000D+00  E= 2.903077D-01

 Vector  102  Occ=0.000000D+00  E= 2.969466D-01

 Vector  103  Occ=0.000000D+00  E= 2.977067D-01

 Vector  104  Occ=0.000000D+00  E= 3.080935D-01

 Vector  105  Occ=0.000000D+00  E= 3.180505D-01

 Vector  106  Occ=0.000000D+00  E= 3.235496D-01

 Vector  107  Occ=0.000000D+00  E= 3.313722D-01

 Vector  108  Occ=0.000000D+00  E= 3.333798D-01

 Vector  109  Occ=0.000000D+00  E= 3.377976D-01

 Vector  110  Occ=0.000000D+00  E= 3.433456D-01

 Vector  111  Occ=0.000000D+00  E= 3.450917D-01

 Vector  112  Occ=0.000000D+00  E= 3.490433D-01

 Vector  113  Occ=0.000000D+00  E= 3.524074D-01

 Vector  114  Occ=0.000000D+00  E= 3.580901D-01

 Vector  115  Occ=0.000000D+00  E= 3.625229D-01

 Vector  116  Occ=0.000000D+00  E= 3.680394D-01

 Vector  117  Occ=0.000000D+00  E= 3.728112D-01

 Vector  118  Occ=0.000000D+00  E= 3.776032D-01

 Vector  119  Occ=0.000000D+00  E= 3.827315D-01

 Vector  120  Occ=0.000000D+00  E= 3.853481D-01

 Vector  121  Occ=0.000000D+00  E= 3.926608D-01

 Vector  122  Occ=0.000000D+00  E= 3.963045D-01

 Vector  123  Occ=0.000000D+00  E= 3.995441D-01

 Vector  124  Occ=0.000000D+00  E= 4.019185D-01

 Vector  125  Occ=0.000000D+00  E= 4.136580D-01

 Vector  126  Occ=0.000000D+00  E= 4.154825D-01

 Vector  127  Occ=0.000000D+00  E= 4.260492D-01

 Vector  128  Occ=0.000000D+00  E= 4.296169D-01

 Vector  129  Occ=0.000000D+00  E= 4.312217D-01

 Vector  130  Occ=0.000000D+00  E= 4.380512D-01

 Vector  131  Occ=0.000000D+00  E= 4.487475D-01

 Vector  132  Occ=0.000000D+00  E= 4.559135D-01

 Vector  133  Occ=0.000000D+00  E= 4.594230D-01

 Vector  134  Occ=0.000000D+00  E= 4.636652D-01

 Vector  135  Occ=0.000000D+00  E= 4.644661D-01

 Vector  136  Occ=0.000000D+00  E= 4.728374D-01

 Vector  137  Occ=0.000000D+00  E= 4.763572D-01

 Vector  138  Occ=0.000000D+00  E= 4.799494D-01

 Vector  139  Occ=0.000000D+00  E= 4.873564D-01

 Vector  140  Occ=0.000000D+00  E= 4.931262D-01

 Vector  141  Occ=0.000000D+00  E= 4.986829D-01

 Vector  142  Occ=0.000000D+00  E= 5.056042D-01

       Multipole analysis of the density wrt the origin
       ------------------------------------------------

     L   x y z        total         open         nuclear
     -   - - -        -----         ----         -------
     0   0 0 0     -0.000000      0.000000    100.000000

     1   1 0 0      1.031079      0.000000      0.000000
     1   0 1 0      2.956718      0.000000     -0.000000
     1   0 0 1      0.414750      0.000000      0.000000

     2   2 0 0    -62.239752      0.000000    695.326817
     2   1 1 0     -5.879313      0.000000     -8.647043
     2   1 0 1     -6.893607      0.000000    -17.821227
     2   0 2 0    -60.704535      0.000000   2124.207271
     2   0 1 1      4.957013      0.000000     12.744552

 Total times  cpu:     1994.9s     wall:     2210.8s
