 Output coordinates in angstroms (scale by  1.889725989 to convert to a.u.)

  No.       Tag          Charge          X              Y              Z
 ---- ---------------- ---------- -------------- -------------- --------------
    1 H                    1.0000     0.77418821     4.91775782    -1.78259254
    2 C                    6.0000    -0.04316119     4.59076491    -1.14168492
    3 H                    1.0000    -0.92905458     4.40826901    -1.74631386
    4 H                    1.0000    -0.25049272     5.35569102    -0.39473466
    5 C                    6.0000     0.36006770     3.30984104    -0.45055432
    6 O                    8.0000     1.45827960     2.81199097    -0.66380752
    7 N                    7.0000    -0.52655524     2.77459578     0.38457517
    8 H                    1.0000    -1.42537980     3.21413580     0.48155444
    9 C                    6.0000    -0.31692979     1.47868952     1.02873520
   10 H                    1.0000     0.69315475     1.47579545     1.43781079
   11 C                    6.0000    -1.30182190     1.33744088     2.19548169
   12 H                    1.0000    -2.32723350     1.35380048     1.82220778
   13 H                    1.0000    -1.12754102     0.39138745     2.71052254
   14 H                    1.0000    -1.16053719     2.15535474     2.90259452
   15 C                    6.0000    -0.46282443     0.31603259     0.01542152
   16 O                    8.0000    -1.37981022     0.35434350    -0.81033773
   17 N                    7.0000     0.37562483    -0.73968661     0.08407152
   18 C                    6.0000     1.51192158    -0.87185070     0.98840739
   19 H                    1.0000     1.20480141    -0.77451475     2.03095806
   20 H                    1.0000     2.25868364    -0.11453524     0.74280462
   21 C                    6.0000     2.09810228    -2.26192472     0.74178541
   22 H                    1.0000     1.61269104    -2.98991656     1.39426516
   23 H                    1.0000     3.17881111    -2.27727905     0.88604795
   24 C                    6.0000     1.71434187    -2.53229094    -0.71195323
   25 H                    1.0000     1.71506356    -3.59778267    -0.94757123
   26 H                    1.0000     2.40597610    -2.00575920    -1.37156783
   27 C                    6.0000     0.32285243    -1.89279629    -0.81970175
   28 H                    1.0000     0.17464487    -1.54907832    -1.84498682
   29 C                    6.0000    -0.83326665    -2.85394311    -0.47065526
   30 O                    8.0000    -0.63571863    -3.97515403    -0.01932074
   31 N                    7.0000    -2.07388599    -2.42072064    -0.64532911
   32 H                    1.0000    -2.22603234    -1.47557288    -0.97254493
   33 H                    1.0000    -2.83572612    -3.03629541    -0.41563947

         Total SCF energy =   -776.686244587233

 Vector   93  Occ=0.000000D+00  E= 1.689880D-01

 Vector   94  Occ=0.000000D+00  E= 1.718703D-01

 Vector   95  Occ=0.000000D+00  E= 1.721925D-01

 Vector   96  Occ=0.000000D+00  E= 1.764327D-01

 Vector   97  Occ=0.000000D+00  E= 1.791668D-01

 Vector   98  Occ=0.000000D+00  E= 1.820289D-01

 Vector   99  Occ=0.000000D+00  E= 1.834918D-01

 Vector  100  Occ=0.000000D+00  E= 1.874669D-01

 Vector  101  Occ=0.000000D+00  E= 1.908814D-01

 Vector  102  Occ=0.000000D+00  E= 1.944012D-01

 Vector  103  Occ=0.000000D+00  E= 1.964788D-01

 Vector  104  Occ=0.000000D+00  E= 1.999208D-01

 Vector  105  Occ=0.000000D+00  E= 2.019965D-01

 Vector  106  Occ=0.000000D+00  E= 2.056451D-01

 Vector  107  Occ=0.000000D+00  E= 2.175968D-01

 Vector  108  Occ=0.000000D+00  E= 2.199544D-01

 Vector  109  Occ=0.000000D+00  E= 2.223803D-01

 Vector  110  Occ=0.000000D+00  E= 2.263332D-01

 Vector  111  Occ=0.000000D+00  E= 2.270653D-01

 Vector  112  Occ=0.000000D+00  E= 2.286814D-01

 Vector  113  Occ=0.000000D+00  E= 2.402294D-01

 Vector  114  Occ=0.000000D+00  E= 2.437370D-01

 Vector  115  Occ=0.000000D+00  E= 2.467894D-01

 Vector  116  Occ=0.000000D+00  E= 2.512939D-01

 Vector  117  Occ=0.000000D+00  E= 2.539693D-01

 Vector  118  Occ=0.000000D+00  E= 2.611906D-01

 Vector  119  Occ=0.000000D+00  E= 2.757874D-01

 Vector  120  Occ=0.000000D+00  E= 2.801116D-01

 Vector  121  Occ=0.000000D+00  E= 2.891599D-01

 Vector  122  Occ=0.000000D+00  E= 2.946698D-01

 Vector  123  Occ=0.000000D+00  E= 3.019546D-01

 Vector  124  Occ=0.000000D+00  E= 3.078234D-01

 Vector  125  Occ=0.000000D+00  E= 3.131134D-01

 Vector  126  Occ=0.000000D+00  E= 3.149975D-01

 Vector  127  Occ=0.000000D+00  E= 3.157509D-01

 Vector  128  Occ=0.000000D+00  E= 3.258167D-01

 Vector  129  Occ=0.000000D+00  E= 3.274687D-01

 Vector  130  Occ=0.000000D+00  E= 3.313995D-01

 Vector  131  Occ=0.000000D+00  E= 3.341714D-01

 Vector  132  Occ=0.000000D+00  E= 3.424065D-01

 Vector  133  Occ=0.000000D+00  E= 3.441874D-01

 Vector  134  Occ=0.000000D+00  E= 3.489535D-01

 Vector  135  Occ=0.000000D+00  E= 3.500640D-01

 Vector  136  Occ=0.000000D+00  E= 3.598053D-01

 Vector  137  Occ=0.000000D+00  E= 3.637517D-01

 Vector  138  Occ=0.000000D+00  E= 3.713482D-01

 Vector  139  Occ=0.000000D+00  E= 3.720712D-01

 Vector  140  Occ=0.000000D+00  E= 3.745311D-01

 Vector  141  Occ=0.000000D+00  E= 3.814930D-01

 Vector  142  Occ=0.000000D+00  E= 3.826506D-01

 Vector  143  Occ=0.000000D+00  E= 3.864687D-01

 Vector  144  Occ=0.000000D+00  E= 3.913124D-01

 Vector  145  Occ=0.000000D+00  E= 3.930588D-01

 Vector  146  Occ=0.000000D+00  E= 3.953639D-01

 Vector  147  Occ=0.000000D+00  E= 4.022155D-01

 Vector  148  Occ=0.000000D+00  E= 4.074387D-01

 Vector  149  Occ=0.000000D+00  E= 4.078110D-01

 Vector  150  Occ=0.000000D+00  E= 4.129013D-01

 Vector  151  Occ=0.000000D+00  E= 4.165335D-01

 Vector  152  Occ=0.000000D+00  E= 4.185818D-01

 Vector  153  Occ=0.000000D+00  E= 4.206970D-01

 Vector  154  Occ=0.000000D+00  E= 4.279811D-01

 Vector  155  Occ=0.000000D+00  E= 4.296440D-01

 Vector  156  Occ=0.000000D+00  E= 4.333001D-01

 Vector  157  Occ=0.000000D+00  E= 4.391232D-01

 Vector  158  Occ=0.000000D+00  E= 4.467894D-01

 Vector  159  Occ=0.000000D+00  E= 4.498918D-01

 Vector  160  Occ=0.000000D+00  E= 4.552220D-01

 Vector  161  Occ=0.000000D+00  E= 4.576136D-01

 Vector  162  Occ=0.000000D+00  E= 4.586179D-01

 Vector  163  Occ=0.000000D+00  E= 4.674023D-01

 Vector  164  Occ=0.000000D+00  E= 4.716433D-01

 Vector  165  Occ=0.000000D+00  E= 4.737154D-01

 Vector  166  Occ=0.000000D+00  E= 4.787642D-01

 Vector  167  Occ=0.000000D+00  E= 4.840352D-01

 Vector  168  Occ=0.000000D+00  E= 4.893850D-01

 Vector  169  Occ=0.000000D+00  E= 4.930415D-01

 Vector  170  Occ=0.000000D+00  E= 4.944747D-01

 Vector  171  Occ=0.000000D+00  E= 4.997160D-01

 Vector  172  Occ=0.000000D+00  E= 5.025825D-01

       Multipole analysis of the density wrt the origin
       ------------------------------------------------

     L   x y z        total         open         nuclear
     -   - - -        -----         ----         -------
     0   0 0 0     -0.000000      0.000000    122.000000

     1   1 0 0     -0.575983      0.000000     -0.000000
     1   0 1 0      1.451499      0.000000     -0.000000
     1   0 0 1      0.905021      0.000000      0.000000

     2   2 0 0    -69.092112      0.000000    703.493232
     2   1 1 0     -8.837600      0.000000    -42.240091
     2   1 0 1      0.049385      0.000000     -4.771480
     2   0 2 0    -77.913285      0.000000   2810.747006
     2   0 1 1      3.989124      0.000000     -2.047473

 Total times  cpu:     4806.7s     wall:     5064.2s
