 Output coordinates in angstroms (scale by  1.889725989 to convert to a.u.)

  No.       Tag          Charge          X              Y              Z
 ---- ---------------- ---------- -------------- -------------- --------------
    1 H                    1.0000    -2.31627450    -4.36038195     0.25009224
    2 C                    6.0000    -1.29087938    -4.33540208    -0.11589391
    3 H                    1.0000    -1.29205699    -4.32712792    -1.20442097
    4 H                    1.0000    -0.75015164    -5.20562758     0.25028242
    5 C                    6.0000    -0.62218376    -3.07839984     0.38962516
    6 O                    8.0000    -1.24354293    -2.28802711     1.08844325
    7 N                    7.0000     0.64859156    -2.89436526     0.03820464
    8 H                    1.0000     1.08300899    -3.56423220    -0.57261267
    9 C                    6.0000     1.38374018    -1.67066200     0.35245903
   10 H                    1.0000     1.23082146    -1.43884498     1.40848163
   11 C                    6.0000     2.88196845    -1.91559888     0.12973055
   12 H                    1.0000     3.22015571    -2.74300263     0.75442119
   13 H                    1.0000     3.06822369    -2.15268486    -0.91915659
   14 H                    1.0000     3.44163588    -1.01868879     0.39466389
   15 C                    6.0000     0.86515507    -0.48356638    -0.48160300
   16 O                    8.0000     0.76089895    -0.57585966    -1.70461429
   17 N                    7.0000     0.57188989     0.63978433     0.17866644
   18 H                    1.0000     0.70844020     0.65710576     1.17932371
   19 C                    6.0000     0.01059866     1.86014810    -0.42514264
   20 H                    1.0000     0.28752912     1.88777297    -1.47852073
   21 C                    6.0000    -1.53372205     1.88692550    -0.34394837
   22 H                    1.0000    -1.86847048     2.84133606    -0.75133635
   23 C                    6.0000    -2.17864027     0.78838640    -1.19684773
   24 H                    1.0000    -1.96255750    -0.19434891    -0.77563338
   25 H                    1.0000    -3.25920470     0.92871882    -1.22310283
   26 H                    1.0000    -1.78900110     0.83064806    -2.21339496
   27 C                    6.0000    -2.07468103     1.77749847     1.08891140
   28 H                    1.0000    -3.16033620     1.87312568     1.07767393
   29 H                    1.0000    -1.81465134     0.80901551     1.51784184
   30 H                    1.0000    -1.66269221     2.56977795     1.71286768
   31 C                    6.0000     0.60229150     3.11197163     0.23043225
   32 O                    8.0000     1.06900474     3.07849923     1.36267002
   33 N                    7.0000     0.59229755     4.24204598    -0.46279793
   34 H                    1.0000     0.21104106     4.26646667    -1.39358046
   35 H                    1.0000     0.98231729     5.06401178    -0.03072985

         Total SCF energy =   -777.856743368428

 Vector   97  Occ=0.000000D+00  E= 1.778846D-01

 Vector   98  Occ=0.000000D+00  E= 1.795811D-01

 Vector   99  Occ=0.000000D+00  E= 1.832561D-01

 Vector  100  Occ=0.000000D+00  E= 1.855209D-01

 Vector  101  Occ=0.000000D+00  E= 1.883394D-01

 Vector  102  Occ=0.000000D+00  E= 1.913395D-01

 Vector  103  Occ=0.000000D+00  E= 1.932218D-01

 Vector  104  Occ=0.000000D+00  E= 1.967236D-01

 Vector  105  Occ=0.000000D+00  E= 1.989965D-01

 Vector  106  Occ=0.000000D+00  E= 2.042429D-01

 Vector  107  Occ=0.000000D+00  E= 2.059864D-01

 Vector  108  Occ=0.000000D+00  E= 2.086624D-01

 Vector  109  Occ=0.000000D+00  E= 2.119447D-01

 Vector  110  Occ=0.000000D+00  E= 2.140210D-01

 Vector  111  Occ=0.000000D+00  E= 2.147938D-01

 Vector  112  Occ=0.000000D+00  E= 2.255194D-01

 Vector  113  Occ=0.000000D+00  E= 2.271307D-01

 Vector  114  Occ=0.000000D+00  E= 2.291653D-01

 Vector  115  Occ=0.000000D+00  E= 2.308809D-01

 Vector  116  Occ=0.000000D+00  E= 2.359657D-01

 Vector  117  Occ=0.000000D+00  E= 2.385143D-01

 Vector  118  Occ=0.000000D+00  E= 2.465926D-01

 Vector  119  Occ=0.000000D+00  E= 2.526743D-01

 Vector  120  Occ=0.000000D+00  E= 2.564964D-01

 Vector  121  Occ=0.000000D+00  E= 2.664827D-01

 Vector  122  Occ=0.000000D+00  E= 2.685772D-01

 Vector  123  Occ=0.000000D+00  E= 2.750167D-01

 Vector  124  Occ=0.000000D+00  E= 2.814848D-01

 Vector  125  Occ=0.000000D+00  E= 2.842382D-01

 Vector  126  Occ=0.000000D+00  E= 2.921091D-01

 Vector  127  Occ=0.000000D+00  E= 2.988283D-01

 Vector  128  Occ=0.000000D+00  E= 3.089615D-01

 Vector  129  Occ=0.000000D+00  E= 3.139526D-01

 Vector  130  Occ=0.000000D+00  E= 3.175167D-01

 Vector  131  Occ=0.000000D+00  E= 3.278234D-01

 Vector  132  Occ=0.000000D+00  E= 3.290133D-01

 Vector  133  Occ=0.000000D+00  E= 3.333968D-01

 Vector  134  Occ=0.000000D+00  E= 3.390426D-01

 Vector  135  Occ=0.000000D+00  E= 3.415982D-01

 Vector  136  Occ=0.000000D+00  E= 3.460050D-01

 Vector  137  Occ=0.000000D+00  E= 3.466170D-01

 Vector  138  Occ=0.000000D+00  E= 3.504286D-01

 Vector  139  Occ=0.000000D+00  E= 3.538249D-01

 Vector  140  Occ=0.000000D+00  E= 3.621681D-01

 Vector  141  Occ=0.000000D+00  E= 3.692789D-01

 Vector  142  Occ=0.000000D+00  E= 3.716434D-01

 Vector  143  Occ=0.000000D+00  E= 3.767021D-01

 Vector  144  Occ=0.000000D+00  E= 3.808904D-01

 Vector  145  Occ=0.000000D+00  E= 3.828328D-01

 Vector  146  Occ=0.000000D+00  E= 3.916265D-01

 Vector  147  Occ=0.000000D+00  E= 3.956400D-01

 Vector  148  Occ=0.000000D+00  E= 3.969678D-01

 Vector  149  Occ=0.000000D+00  E= 4.012196D-01

 Vector  150  Occ=0.000000D+00  E= 4.034965D-01

 Vector  151  Occ=0.000000D+00  E= 4.040639D-01

 Vector  152  Occ=0.000000D+00  E= 4.095924D-01

 Vector  153  Occ=0.000000D+00  E= 4.110994D-01

 Vector  154  Occ=0.000000D+00  E= 4.167104D-01

 Vector  155  Occ=0.000000D+00  E= 4.210039D-01

 Vector  156  Occ=0.000000D+00  E= 4.250068D-01

 Vector  157  Occ=0.000000D+00  E= 4.268787D-01

 Vector  158  Occ=0.000000D+00  E= 4.278779D-01

 Vector  159  Occ=0.000000D+00  E= 4.326339D-01

 Vector  160  Occ=0.000000D+00  E= 4.351786D-01

 Vector  161  Occ=0.000000D+00  E= 4.421188D-01

 Vector  162  Occ=0.000000D+00  E= 4.443311D-01

 Vector  163  Occ=0.000000D+00  E= 4.474434D-01

 Vector  164  Occ=0.000000D+00  E= 4.525823D-01

 Vector  165  Occ=0.000000D+00  E= 4.550096D-01

 Vector  166  Occ=0.000000D+00  E= 4.581158D-01

 Vector  167  Occ=0.000000D+00  E= 4.616311D-01

 Vector  168  Occ=0.000000D+00  E= 4.671152D-01

 Vector  169  Occ=0.000000D+00  E= 4.728361D-01

 Vector  170  Occ=0.000000D+00  E= 4.742989D-01

 Vector  171  Occ=0.000000D+00  E= 4.830027D-01

 Vector  172  Occ=0.000000D+00  E= 4.886562D-01

 Vector  173  Occ=0.000000D+00  E= 4.927808D-01

 Vector  174  Occ=0.000000D+00  E= 4.943483D-01

 Vector  175  Occ=0.000000D+00  E= 4.975008D-01

 Vector  176  Occ=0.000000D+00  E= 5.041808D-01

       Multipole analysis of the density wrt the origin
       ------------------------------------------------

     L   x y z        total         open         nuclear
     -   - - -        -----         ----         -------
     0   0 0 0     -0.000000      0.000000    124.000000

     1   1 0 0      0.444521      0.000000      0.000000
     1   0 1 0     -0.051892      0.000000      0.000000
     1   0 0 1     -0.857337      0.000000     -0.000000

     2   2 0 0    -72.626752      0.000000    940.203028
     2   1 1 0     -6.009715      0.000000    -33.820037
     2   1 0 1      2.427280      0.000000      8.616323
     2   0 2 0    -51.177982      0.000000   2862.625735
     2   0 1 1     -6.849463      0.000000     -5.384464

 Total times  cpu:     8795.4s     wall:     8830.1s
