 Output coordinates in angstroms (scale by  1.889725989 to convert to a.u.)

  No.       Tag          Charge          X              Y              Z
 ---- ---------------- ---------- -------------- -------------- --------------
    1 H                    1.0000    -2.06157171     3.86171487     2.18488609
    2 C                    6.0000    -2.61466998     3.61240801     1.28078688
    3 H                    1.0000    -2.92512710     4.52217668     0.77167653
    4 H                    1.0000    -3.49395263     3.02448526     1.54257661
    5 C                    6.0000    -1.73540213     2.79746964     0.36218768
    6 O                    8.0000    -2.06278472     1.66343047     0.03905333
    7 N                    7.0000    -0.60939595     3.37148696    -0.05603139
    8 H                    1.0000    -0.40298589     4.30320158     0.26525317
    9 C                    6.0000     0.36858698     2.72972026    -0.93878498
   10 H                    1.0000    -0.17477123     2.21127513    -1.73043990
   11 C                    6.0000     1.21117431     3.83217743    -1.59781744
   12 H                    1.0000     0.56474907     4.52076438    -2.14292882
   13 H                    1.0000     1.76941334     4.38302095    -0.83814541
   14 H                    1.0000     1.91846191     3.38415557    -2.29657109
   15 C                    6.0000     1.21860360     1.66354473    -0.20474923
   16 O                    8.0000     2.42093257     1.83080532    -0.02078744
   17 N                    7.0000     0.59008018     0.56783838     0.23279493
   18 H                    1.0000    -0.41073703     0.51455323     0.07942086
   19 C                    6.0000     1.21434812    -0.49249385     1.04421536
   20 H                    1.0000     1.73199427    -0.01259884     1.87484177
   21 C                    6.0000     0.10463903    -1.38106136     1.63635851
   22 H                    1.0000     0.55545034    -2.05421129     2.36723287
   23 H                    1.0000    -0.59718382    -0.74955142     2.18200023
   24 C                    6.0000    -0.66370956    -2.21727734     0.62495143
   25 C                    6.0000    -0.15713274    -3.46330109     0.20507439
   26 H                    1.0000     0.77638267    -3.83176424     0.60750437
   27 C                    6.0000    -0.85929807    -4.23166398    -0.74076033
   28 H                    1.0000    -0.46384589    -5.18593388    -1.06059236
   29 C                    6.0000    -2.07545727    -3.76278256    -1.26533638
   30 H                    1.0000    -2.61609929    -4.35449897    -1.99050113
   31 C                    6.0000    -2.59129155    -2.52641285    -0.83997310
   32 H                    1.0000    -3.53056582    -2.16675422    -1.23589800
   33 C                    6.0000    -1.88970359    -1.75825603     0.10507157
   34 H                    1.0000    -2.30032704    -0.81486185     0.43503036
   35 C                    6.0000     2.28033478    -1.34326279     0.31620803
   36 O                    8.0000     2.89613585    -2.21401189     0.92108657
   37 N                    7.0000     2.51893501    -1.14430906    -0.97328309
   38 H                    1.0000     3.22344893    -1.70716799    -1.41855152
   39 H                    1.0000     2.03953109    -0.40775933    -1.46057189

         Total SCF energy =   -929.346950612169

 Vector  128  Occ=0.000000D+00  E= 2.128029D-01

 Vector  129  Occ=0.000000D+00  E= 2.150571D-01

 Vector  130  Occ=0.000000D+00  E= 2.172971D-01

 Vector  131  Occ=0.000000D+00  E= 2.192316D-01

 Vector  132  Occ=0.000000D+00  E= 2.234712D-01

 Vector  133  Occ=0.000000D+00  E= 2.285734D-01

 Vector  134  Occ=0.000000D+00  E= 2.318980D-01

 Vector  135  Occ=0.000000D+00  E= 2.339205D-01

 Vector  136  Occ=0.000000D+00  E= 2.382222D-01

 Vector  137  Occ=0.000000D+00  E= 2.425837D-01

 Vector  138  Occ=0.000000D+00  E= 2.485900D-01

 Vector  139  Occ=0.000000D+00  E= 2.508909D-01

 Vector  140  Occ=0.000000D+00  E= 2.600270D-01

 Vector  141  Occ=0.000000D+00  E= 2.611522D-01

 Vector  142  Occ=0.000000D+00  E= 2.648673D-01

 Vector  143  Occ=0.000000D+00  E= 2.696683D-01

 Vector  144  Occ=0.000000D+00  E= 2.791189D-01

 Vector  145  Occ=0.000000D+00  E= 2.826635D-01

 Vector  146  Occ=0.000000D+00  E= 2.865732D-01

 Vector  147  Occ=0.000000D+00  E= 2.873969D-01

 Vector  148  Occ=0.000000D+00  E= 2.967595D-01

 Vector  149  Occ=0.000000D+00  E= 2.979790D-01

 Vector  150  Occ=0.000000D+00  E= 3.036230D-01

 Vector  151  Occ=0.000000D+00  E= 3.073756D-01

 Vector  152  Occ=0.000000D+00  E= 3.156337D-01

 Vector  153  Occ=0.000000D+00  E= 3.199758D-01

 Vector  154  Occ=0.000000D+00  E= 3.217428D-01

 Vector  155  Occ=0.000000D+00  E= 3.240102D-01

 Vector  156  Occ=0.000000D+00  E= 3.284569D-01

 Vector  157  Occ=0.000000D+00  E= 3.297569D-01

 Vector  158  Occ=0.000000D+00  E= 3.341590D-01

 Vector  159  Occ=0.000000D+00  E= 3.378991D-01

 Vector  160  Occ=0.000000D+00  E= 3.400405D-01

 Vector  161  Occ=0.000000D+00  E= 3.431966D-01

 Vector  162  Occ=0.000000D+00  E= 3.474287D-01

 Vector  163  Occ=0.000000D+00  E= 3.487088D-01

 Vector  164  Occ=0.000000D+00  E= 3.521171D-01

 Vector  165  Occ=0.000000D+00  E= 3.601387D-01

 Vector  166  Occ=0.000000D+00  E= 3.635550D-01

 Vector  167  Occ=0.000000D+00  E= 3.670136D-01

 Vector  168  Occ=0.000000D+00  E= 3.686450D-01

 Vector  169  Occ=0.000000D+00  E= 3.733177D-01

 Vector  170  Occ=0.000000D+00  E= 3.759166D-01

 Vector  171  Occ=0.000000D+00  E= 3.808290D-01

 Vector  172  Occ=0.000000D+00  E= 3.817396D-01

 Vector  173  Occ=0.000000D+00  E= 3.859410D-01

 Vector  174  Occ=0.000000D+00  E= 3.918435D-01

 Vector  175  Occ=0.000000D+00  E= 3.960122D-01

 Vector  176  Occ=0.000000D+00  E= 3.982248D-01

 Vector  177  Occ=0.000000D+00  E= 4.008904D-01

 Vector  178  Occ=0.000000D+00  E= 4.045249D-01

 Vector  179  Occ=0.000000D+00  E= 4.068119D-01

 Vector  180  Occ=0.000000D+00  E= 4.096810D-01

 Vector  181  Occ=0.000000D+00  E= 4.114920D-01

 Vector  182  Occ=0.000000D+00  E= 4.155172D-01

 Vector  183  Occ=0.000000D+00  E= 4.186272D-01

 Vector  184  Occ=0.000000D+00  E= 4.242489D-01

 Vector  185  Occ=0.000000D+00  E= 4.268798D-01

 Vector  186  Occ=0.000000D+00  E= 4.291389D-01

 Vector  187  Occ=0.000000D+00  E= 4.321680D-01

 Vector  188  Occ=0.000000D+00  E= 4.345097D-01

 Vector  189  Occ=0.000000D+00  E= 4.357860D-01

 Vector  190  Occ=0.000000D+00  E= 4.400923D-01

 Vector  191  Occ=0.000000D+00  E= 4.417453D-01

 Vector  192  Occ=0.000000D+00  E= 4.442056D-01

 Vector  193  Occ=0.000000D+00  E= 4.478353D-01

 Vector  194  Occ=0.000000D+00  E= 4.502402D-01

 Vector  195  Occ=0.000000D+00  E= 4.525920D-01

 Vector  196  Occ=0.000000D+00  E= 4.594703D-01

 Vector  197  Occ=0.000000D+00  E= 4.656598D-01

 Vector  198  Occ=0.000000D+00  E= 4.663294D-01

 Vector  199  Occ=0.000000D+00  E= 4.759131D-01

 Vector  200  Occ=0.000000D+00  E= 4.789908D-01

 Vector  201  Occ=0.000000D+00  E= 4.823687D-01

 Vector  202  Occ=0.000000D+00  E= 4.839945D-01

 Vector  203  Occ=0.000000D+00  E= 4.852684D-01

 Vector  204  Occ=0.000000D+00  E= 4.904820D-01

 Vector  205  Occ=0.000000D+00  E= 4.971706D-01

 Vector  206  Occ=0.000000D+00  E= 4.976993D-01

 Vector  207  Occ=0.000000D+00  E= 5.010042D-01

       Multipole analysis of the density wrt the origin
       ------------------------------------------------

     L   x y z        total         open         nuclear
     -   - - -        -----         ----         -------
     0   0 0 0     -0.000000      0.000000    148.000000

     1   1 0 0     -1.604684      0.000000     -0.000000
     1   0 1 0      2.329694      0.000000     -0.000000
     1   0 0 1     -0.730266      0.000000     -0.000000

     2   2 0 0   -101.769990      0.000000   1736.003183
     2   1 1 0     -3.406292      0.000000     -7.476304
     2   1 0 1     -7.549567      0.000000    -24.418705
     2   0 2 0    -76.158922      0.000000   3647.149989
     2   0 1 1      6.358611      0.000000      6.018944

 Total times  cpu:     6347.6s     wall:     6436.6s
