 Output coordinates in angstroms (scale by  1.889725989 to convert to a.u.)

  No.       Tag          Charge          X              Y              Z
 ---- ---------------- ---------- -------------- -------------- --------------
    1 H                    1.0000    -0.73834043    -4.95043210     0.15085414
    2 C                    6.0000    -0.36975512    -4.37882086    -0.69761711
    3 H                    1.0000    -0.98293171    -4.58672181    -1.57384291
    4 H                    1.0000     0.66535745    -4.64384106    -0.90726267
    5 C                    6.0000    -0.44981789    -2.90373279    -0.38449871
    6 O                    8.0000    -1.12265879    -2.15861262    -1.08642610
    7 N                    7.0000     0.23706766    -2.47824505     0.67550951
    8 H                    1.0000     0.80090331    -3.14178811     1.17688757
    9 C                    6.0000     0.34381421    -1.06587773     1.04257587
   10 H                    1.0000    -0.66622021    -0.67649001     1.15030084
   11 C                    6.0000     1.03757210    -0.96827704     2.40815380
   12 H                    1.0000     0.47213133    -1.53077151     3.15277029
   13 H                    1.0000     2.04995229    -1.37135369     2.34026739
   14 H                    1.0000     1.09266580     0.07357181     2.72198441
   15 C                    6.0000     1.09953858    -0.25277681    -0.04115499
   16 O                    8.0000     2.04637958    -0.78351979    -0.62296253
   17 N                    7.0000     0.74793923     1.02826782    -0.29430423
   18 C                    6.0000     1.54376500     1.89243484    -1.15636612
   19 H                    1.0000     1.10906016     1.90694512    -2.15664466
   20 H                    1.0000     2.58630881     1.57582556    -1.20706093
   21 C                    6.0000     1.45267497     3.27623929    -0.52485535
   22 H                    1.0000     1.64087606     4.06809211    -1.25063112
   23 H                    1.0000     2.14080339     3.34548388     0.31823982
   24 C                    6.0000     0.01110603     3.29208965    -0.02447174
   25 H                    1.0000    -0.64764312     3.56819609    -0.84958010
   26 H                    1.0000    -0.11800333     3.98697169     0.80691008
   27 C                    6.0000    -0.25992898     1.84096225     0.40635222
   28 H                    1.0000    -0.08169105     1.76511552     1.47937390
   29 C                    6.0000    -1.73534731     1.49033280     0.14226754
   30 O                    8.0000    -2.61323879     2.03030644     0.80004716
   31 N                    7.0000    -2.05352024     0.60602441    -0.79277827
   32 H                    1.0000    -3.02690626     0.38673289    -0.92793699
   33 H                    1.0000    -1.34231459     0.09129970    -1.29119877

         Total SCF energy =   -776.681261113177

 Vector   93  Occ=0.000000D+00  E= 1.694430D-01

 Vector   94  Occ=0.000000D+00  E= 1.704015D-01

 Vector   95  Occ=0.000000D+00  E= 1.737743D-01

 Vector   96  Occ=0.000000D+00  E= 1.775989D-01

 Vector   97  Occ=0.000000D+00  E= 1.783492D-01

 Vector   98  Occ=0.000000D+00  E= 1.815360D-01

 Vector   99  Occ=0.000000D+00  E= 1.831191D-01

 Vector  100  Occ=0.000000D+00  E= 1.872345D-01

 Vector  101  Occ=0.000000D+00  E= 1.895193D-01

 Vector  102  Occ=0.000000D+00  E= 1.945458D-01

 Vector  103  Occ=0.000000D+00  E= 1.963168D-01

 Vector  104  Occ=0.000000D+00  E= 2.012112D-01

 Vector  105  Occ=0.000000D+00  E= 2.034337D-01

 Vector  106  Occ=0.000000D+00  E= 2.048664D-01

 Vector  107  Occ=0.000000D+00  E= 2.106523D-01

 Vector  108  Occ=0.000000D+00  E= 2.193790D-01

 Vector  109  Occ=0.000000D+00  E= 2.208519D-01

 Vector  110  Occ=0.000000D+00  E= 2.223106D-01

 Vector  111  Occ=0.000000D+00  E= 2.283214D-01

 Vector  112  Occ=0.000000D+00  E= 2.356000D-01

 Vector  113  Occ=0.000000D+00  E= 2.391691D-01

 Vector  114  Occ=0.000000D+00  E= 2.448919D-01

 Vector  115  Occ=0.000000D+00  E= 2.493685D-01

 Vector  116  Occ=0.000000D+00  E= 2.572339D-01

 Vector  117  Occ=0.000000D+00  E= 2.612895D-01

 Vector  118  Occ=0.000000D+00  E= 2.619002D-01

 Vector  119  Occ=0.000000D+00  E= 2.668934D-01

 Vector  120  Occ=0.000000D+00  E= 2.719598D-01

 Vector  121  Occ=0.000000D+00  E= 2.877540D-01

 Vector  122  Occ=0.000000D+00  E= 2.940192D-01

 Vector  123  Occ=0.000000D+00  E= 3.005986D-01

 Vector  124  Occ=0.000000D+00  E= 3.073430D-01

 Vector  125  Occ=0.000000D+00  E= 3.113892D-01

 Vector  126  Occ=0.000000D+00  E= 3.172962D-01

 Vector  127  Occ=0.000000D+00  E= 3.216470D-01

 Vector  128  Occ=0.000000D+00  E= 3.229751D-01

 Vector  129  Occ=0.000000D+00  E= 3.297489D-01

 Vector  130  Occ=0.000000D+00  E= 3.339775D-01

 Vector  131  Occ=0.000000D+00  E= 3.375793D-01

 Vector  132  Occ=0.000000D+00  E= 3.446215D-01

 Vector  133  Occ=0.000000D+00  E= 3.466340D-01

 Vector  134  Occ=0.000000D+00  E= 3.493074D-01

 Vector  135  Occ=0.000000D+00  E= 3.572969D-01

 Vector  136  Occ=0.000000D+00  E= 3.673144D-01

 Vector  137  Occ=0.000000D+00  E= 3.688563D-01

 Vector  138  Occ=0.000000D+00  E= 3.704457D-01

 Vector  139  Occ=0.000000D+00  E= 3.740289D-01

 Vector  140  Occ=0.000000D+00  E= 3.797535D-01

 Vector  141  Occ=0.000000D+00  E= 3.834717D-01

 Vector  142  Occ=0.000000D+00  E= 3.878085D-01

 Vector  143  Occ=0.000000D+00  E= 3.904535D-01

 Vector  144  Occ=0.000000D+00  E= 3.922478D-01

 Vector  145  Occ=0.000000D+00  E= 3.999492D-01

 Vector  146  Occ=0.000000D+00  E= 4.015756D-01

 Vector  147  Occ=0.000000D+00  E= 4.077608D-01

 Vector  148  Occ=0.000000D+00  E= 4.103096D-01

 Vector  149  Occ=0.000000D+00  E= 4.136306D-01

 Vector  150  Occ=0.000000D+00  E= 4.163959D-01

 Vector  151  Occ=0.000000D+00  E= 4.207065D-01

 Vector  152  Occ=0.000000D+00  E= 4.230754D-01

 Vector  153  Occ=0.000000D+00  E= 4.259110D-01

 Vector  154  Occ=0.000000D+00  E= 4.292808D-01

 Vector  155  Occ=0.000000D+00  E= 4.329831D-01

 Vector  156  Occ=0.000000D+00  E= 4.380780D-01

 Vector  157  Occ=0.000000D+00  E= 4.400275D-01

 Vector  158  Occ=0.000000D+00  E= 4.425588D-01

 Vector  159  Occ=0.000000D+00  E= 4.442445D-01

 Vector  160  Occ=0.000000D+00  E= 4.467480D-01

 Vector  161  Occ=0.000000D+00  E= 4.487516D-01

 Vector  162  Occ=0.000000D+00  E= 4.557061D-01

 Vector  163  Occ=0.000000D+00  E= 4.596723D-01

 Vector  164  Occ=0.000000D+00  E= 4.629858D-01

 Vector  165  Occ=0.000000D+00  E= 4.693519D-01

 Vector  166  Occ=0.000000D+00  E= 4.783797D-01

 Vector  167  Occ=0.000000D+00  E= 4.813410D-01

 Vector  168  Occ=0.000000D+00  E= 4.824112D-01

 Vector  169  Occ=0.000000D+00  E= 4.847794D-01

 Vector  170  Occ=0.000000D+00  E= 4.911077D-01

 Vector  171  Occ=0.000000D+00  E= 4.928027D-01

 Vector  172  Occ=0.000000D+00  E= 5.006097D-01

       Multipole analysis of the density wrt the origin
       ------------------------------------------------

     L   x y z        total         open         nuclear
     -   - - -        -----         ----         -------
     0   0 0 0      0.000000      0.000000    122.000000

     1   1 0 0      1.060835      0.000000     -0.000000
     1   0 1 0     -0.587821      0.000000     -0.000000
     1   0 0 1      0.678537      0.000000      0.000000

     2   2 0 0    -83.246839      0.000000    818.465242
     2   1 1 0      8.230596      0.000000     27.177431
     2   1 0 1      6.677830      0.000000     14.724767
     2   0 2 0    -60.624836      0.000000   2280.476414
     2   0 1 1     -8.041530      0.000000    -16.501574

 Total times  cpu:     4736.8s     wall:     5083.3s
