 Output coordinates in angstroms (scale by  1.889725989 to convert to a.u.)

  No.       Tag          Charge          X              Y              Z
 ---- ---------------- ---------- -------------- -------------- --------------
    1 H                    1.0000    -0.36349629     5.90922647     0.97284554
    2 C                    6.0000     0.17997370     4.98288991     1.15249787
    3 H                    1.0000     0.00419611     4.64763175     2.17251218
    4 H                    1.0000     1.24366826     5.14703897     0.99250108
    5 C                    6.0000    -0.31452141     3.93168284     0.18631348
    6 O                    8.0000    -1.19213806     4.20245677    -0.62267632
    7 N                    7.0000     0.24607970     2.72769452     0.27687024
    8 H                    1.0000     0.93988932     2.56939812     0.99240532
    9 C                    6.0000    -0.11485808     1.58127110    -0.55705197
   10 H                    1.0000    -1.17712248     1.64343249    -0.79920756
   11 C                    6.0000     0.68710221     1.64451913    -1.86591001
   12 H                    1.0000     0.40863384     0.81406636    -2.51535636
   13 H                    1.0000     0.47282963     2.58040715    -2.38507941
   14 H                    1.0000     1.75562855     1.58991601    -1.65255826
   15 C                    6.0000     0.12510233     0.25492493     0.18582611
   16 O                    8.0000     0.91891353     0.19624839     1.12491335
   17 N                    7.0000    -0.53791870    -0.81997422    -0.25495492
   18 H                    1.0000    -1.15392468    -0.69562173    -1.04257608
   19 C                    6.0000    -0.44715644    -2.17065923     0.33199840
   20 H                    1.0000    -0.45059133    -2.06419619     1.41765849
   21 C                    6.0000    -1.70166133    -2.97396352    -0.04299454
   22 H                    1.0000    -2.58970899    -2.42878317     0.28125805
   23 H                    1.0000    -1.74341433    -3.10585412    -1.12591723
   24 O                    8.0000    -1.68743013    -4.23700911     0.58128609
   25 H                    1.0000    -0.92601475    -4.71979270     0.22355348
   26 C                    6.0000     0.85650053    -2.91501534    -0.03172471
   27 O                    8.0000     0.83823298    -4.03219006    -0.53823033
   28 N                    7.0000     2.01363748    -2.30301114     0.17882444
   29 H                    1.0000     2.86526478    -2.78225378    -0.06181730
   30 H                    1.0000     2.01805751    -1.38752668     0.60852977

         Total SCF energy =   -774.654264645574

 Vector   84  Occ=0.000000D+00  E= 1.511960D-01

 Vector   85  Occ=0.000000D+00  E= 1.552267D-01

 Vector   86  Occ=0.000000D+00  E= 1.614083D-01

 Vector   87  Occ=0.000000D+00  E= 1.640891D-01

 Vector   88  Occ=0.000000D+00  E= 1.659682D-01

 Vector   89  Occ=0.000000D+00  E= 1.703039D-01

 Vector   90  Occ=0.000000D+00  E= 1.758059D-01

 Vector   91  Occ=0.000000D+00  E= 1.772970D-01

 Vector   92  Occ=0.000000D+00  E= 1.787881D-01

 Vector   93  Occ=0.000000D+00  E= 1.812620D-01

 Vector   94  Occ=0.000000D+00  E= 1.826933D-01

 Vector   95  Occ=0.000000D+00  E= 1.876289D-01

 Vector   96  Occ=0.000000D+00  E= 1.889642D-01

 Vector   97  Occ=0.000000D+00  E= 1.929127D-01

 Vector   98  Occ=0.000000D+00  E= 1.963518D-01

 Vector   99  Occ=0.000000D+00  E= 2.049250D-01

 Vector  100  Occ=0.000000D+00  E= 2.077671D-01

 Vector  101  Occ=0.000000D+00  E= 2.115014D-01

 Vector  102  Occ=0.000000D+00  E= 2.209111D-01

 Vector  103  Occ=0.000000D+00  E= 2.239281D-01

 Vector  104  Occ=0.000000D+00  E= 2.280266D-01

 Vector  105  Occ=0.000000D+00  E= 2.344933D-01

 Vector  106  Occ=0.000000D+00  E= 2.381045D-01

 Vector  107  Occ=0.000000D+00  E= 2.441600D-01

 Vector  108  Occ=0.000000D+00  E= 2.472520D-01

 Vector  109  Occ=0.000000D+00  E= 2.519660D-01

 Vector  110  Occ=0.000000D+00  E= 2.564492D-01

 Vector  111  Occ=0.000000D+00  E= 2.636099D-01

 Vector  112  Occ=0.000000D+00  E= 2.707071D-01

 Vector  113  Occ=0.000000D+00  E= 2.811250D-01

 Vector  114  Occ=0.000000D+00  E= 2.872839D-01

 Vector  115  Occ=0.000000D+00  E= 2.914448D-01

 Vector  116  Occ=0.000000D+00  E= 2.967788D-01

 Vector  117  Occ=0.000000D+00  E= 3.072392D-01

 Vector  118  Occ=0.000000D+00  E= 3.093488D-01

 Vector  119  Occ=0.000000D+00  E= 3.129359D-01

 Vector  120  Occ=0.000000D+00  E= 3.159914D-01

 Vector  121  Occ=0.000000D+00  E= 3.200984D-01

 Vector  122  Occ=0.000000D+00  E= 3.241917D-01

 Vector  123  Occ=0.000000D+00  E= 3.264935D-01

 Vector  124  Occ=0.000000D+00  E= 3.315707D-01

 Vector  125  Occ=0.000000D+00  E= 3.345648D-01

 Vector  126  Occ=0.000000D+00  E= 3.402727D-01

 Vector  127  Occ=0.000000D+00  E= 3.490527D-01

 Vector  128  Occ=0.000000D+00  E= 3.519812D-01

 Vector  129  Occ=0.000000D+00  E= 3.563659D-01

 Vector  130  Occ=0.000000D+00  E= 3.598466D-01

 Vector  131  Occ=0.000000D+00  E= 3.663217D-01

 Vector  132  Occ=0.000000D+00  E= 3.680378D-01

 Vector  133  Occ=0.000000D+00  E= 3.702939D-01

 Vector  134  Occ=0.000000D+00  E= 3.728820D-01

 Vector  135  Occ=0.000000D+00  E= 3.753156D-01

 Vector  136  Occ=0.000000D+00  E= 3.844162D-01

 Vector  137  Occ=0.000000D+00  E= 3.918535D-01

 Vector  138  Occ=0.000000D+00  E= 3.927115D-01

 Vector  139  Occ=0.000000D+00  E= 3.945838D-01

 Vector  140  Occ=0.000000D+00  E= 4.017073D-01

 Vector  141  Occ=0.000000D+00  E= 4.051834D-01

 Vector  142  Occ=0.000000D+00  E= 4.114395D-01

 Vector  143  Occ=0.000000D+00  E= 4.170909D-01

 Vector  144  Occ=0.000000D+00  E= 4.240793D-01

 Vector  145  Occ=0.000000D+00  E= 4.244720D-01

 Vector  146  Occ=0.000000D+00  E= 4.326316D-01

 Vector  147  Occ=0.000000D+00  E= 4.343462D-01

 Vector  148  Occ=0.000000D+00  E= 4.405465D-01

 Vector  149  Occ=0.000000D+00  E= 4.443342D-01

 Vector  150  Occ=0.000000D+00  E= 4.464152D-01

 Vector  151  Occ=0.000000D+00  E= 4.479865D-01

 Vector  152  Occ=0.000000D+00  E= 4.546188D-01

 Vector  153  Occ=0.000000D+00  E= 4.625838D-01

 Vector  154  Occ=0.000000D+00  E= 4.675147D-01

 Vector  155  Occ=0.000000D+00  E= 4.728750D-01

 Vector  156  Occ=0.000000D+00  E= 4.742845D-01

 Vector  157  Occ=0.000000D+00  E= 4.791405D-01

 Vector  158  Occ=0.000000D+00  E= 4.824160D-01

 Vector  159  Occ=0.000000D+00  E= 4.884305D-01

 Vector  160  Occ=0.000000D+00  E= 4.888175D-01

 Vector  161  Occ=0.000000D+00  E= 4.950789D-01

 Vector  162  Occ=0.000000D+00  E= 4.995375D-01

 Vector  163  Occ=0.000000D+00  E= 5.101334D-01

       Multipole analysis of the density wrt the origin
       ------------------------------------------------

     L   x y z        total         open         nuclear
     -   - - -        -----         ----         -------
     0   0 0 0     -0.000000      0.000000    116.000000

     1   1 0 0      0.946096      0.000000      0.000000
     1   0 1 0      0.880000      0.000000      0.000000
     1   0 0 1     -0.043534      0.000000     -0.000000

     2   2 0 0    -65.803778      0.000000    485.549066
     2   1 1 0      5.195350      0.000000     28.671275
     2   1 0 1      0.723967      0.000000      0.598604
     2   0 2 0    -88.350324      0.000000   3818.380290
     2   0 1 1      6.913957      0.000000     18.004970

 Total times  cpu:     3036.2s     wall:     3192.9s
