 Output coordinates in angstroms (scale by  1.889725989 to convert to a.u.)

  No.       Tag          Charge          X              Y              Z
 ---- ---------------- ---------- -------------- -------------- --------------
    1 H                    1.0000     3.07783252    -3.27879836     0.26485788
    2 C                    6.0000     2.12241324    -3.23448354     0.78701227
    3 H                    1.0000     2.25581278    -2.73712278     1.74598350
    4 H                    1.0000     1.74647718    -4.24433321     0.93969077
    5 C                    6.0000     1.14108466    -2.45339088    -0.05371270
    6 O                    8.0000     1.48660830    -1.98354902    -1.12965696
    7 N                    7.0000    -0.08493094    -2.30034098     0.44394029
    8 H                    1.0000    -0.28200219    -2.71135383     1.34165425
    9 C                    6.0000    -1.18642883    -1.60198233    -0.23110903
   10 H                    1.0000    -1.17833850    -1.90033748    -1.28084031
   11 C                    6.0000    -2.50588022    -2.10115259     0.37866724
   12 H                    1.0000    -3.34762395    -1.65515376    -0.15409962
   13 H                    1.0000    -2.57187338    -3.18622028     0.29065579
   14 H                    1.0000    -2.56500275    -1.81675695     1.43081630
   15 C                    6.0000    -1.04515252    -0.05792204    -0.21581785
   16 O                    8.0000    -1.94407867     0.64668092     0.23820356
   17 N                    7.0000     0.10020236     0.45353804    -0.68371612
   18 H                    1.0000     0.76655811    -0.22751863    -1.03304952
   19 C                    6.0000     0.52494314     1.86307176    -0.76152970
   20 H                    1.0000     1.54084131     1.85096808    -1.16042117
   21 C                    6.0000    -0.33396418     2.59457666    -1.80235236
   22 H                    1.0000     0.06034200     3.59989235    -1.95702627
   23 H                    1.0000    -0.31040889     2.05688877    -2.75023731
   24 H                    1.0000    -1.36484922     2.66983679    -1.45440850
   25 C                    6.0000     0.63244777     2.64552803     0.57064256
   26 O                    8.0000     1.51561157     3.48057748     0.71733990
   27 N                    7.0000    -0.20293701     2.39434791     1.56829822
   28 H                    1.0000    -0.96803469     1.74975228     1.42028466
   29 H                    1.0000    -0.10797912     2.92229670     2.41858821

         Total SCF energy =   -699.778610562524

 Vector   74  Occ=0.000000D+00  E= 1.336340D-01

 Vector   75  Occ=0.000000D+00  E= 1.401164D-01

 Vector   76  Occ=0.000000D+00  E= 1.435434D-01

 Vector   77  Occ=0.000000D+00  E= 1.482269D-01

 Vector   78  Occ=0.000000D+00  E= 1.522973D-01

 Vector   79  Occ=0.000000D+00  E= 1.550855D-01

 Vector   80  Occ=0.000000D+00  E= 1.571977D-01

 Vector   81  Occ=0.000000D+00  E= 1.596334D-01

 Vector   82  Occ=0.000000D+00  E= 1.608660D-01

 Vector   83  Occ=0.000000D+00  E= 1.643528D-01

 Vector   84  Occ=0.000000D+00  E= 1.689304D-01

 Vector   85  Occ=0.000000D+00  E= 1.724750D-01

 Vector   86  Occ=0.000000D+00  E= 1.743069D-01

 Vector   87  Occ=0.000000D+00  E= 1.775785D-01

 Vector   88  Occ=0.000000D+00  E= 1.799083D-01

 Vector   89  Occ=0.000000D+00  E= 1.847963D-01

 Vector   90  Occ=0.000000D+00  E= 1.869694D-01

 Vector   91  Occ=0.000000D+00  E= 1.954650D-01

 Vector   92  Occ=0.000000D+00  E= 1.996855D-01

 Vector   93  Occ=0.000000D+00  E= 2.011311D-01

 Vector   94  Occ=0.000000D+00  E= 2.051107D-01

 Vector   95  Occ=0.000000D+00  E= 2.089213D-01

 Vector   96  Occ=0.000000D+00  E= 2.125323D-01

 Vector   97  Occ=0.000000D+00  E= 2.149336D-01

 Vector   98  Occ=0.000000D+00  E= 2.208784D-01

 Vector   99  Occ=0.000000D+00  E= 2.292304D-01

 Vector  100  Occ=0.000000D+00  E= 2.333786D-01

 Vector  101  Occ=0.000000D+00  E= 2.374322D-01

 Vector  102  Occ=0.000000D+00  E= 2.461192D-01

 Vector  103  Occ=0.000000D+00  E= 2.487350D-01

 Vector  104  Occ=0.000000D+00  E= 2.541083D-01

 Vector  105  Occ=0.000000D+00  E= 2.628166D-01

 Vector  106  Occ=0.000000D+00  E= 2.730129D-01

 Vector  107  Occ=0.000000D+00  E= 2.781092D-01

 Vector  108  Occ=0.000000D+00  E= 2.827125D-01

 Vector  109  Occ=0.000000D+00  E= 2.867809D-01

 Vector  110  Occ=0.000000D+00  E= 2.956153D-01

 Vector  111  Occ=0.000000D+00  E= 3.067252D-01

 Vector  112  Occ=0.000000D+00  E= 3.149132D-01

 Vector  113  Occ=0.000000D+00  E= 3.225801D-01

 Vector  114  Occ=0.000000D+00  E= 3.261777D-01

 Vector  115  Occ=0.000000D+00  E= 3.306033D-01

 Vector  116  Occ=0.000000D+00  E= 3.352558D-01

 Vector  117  Occ=0.000000D+00  E= 3.388411D-01

 Vector  118  Occ=0.000000D+00  E= 3.435227D-01

 Vector  119  Occ=0.000000D+00  E= 3.461965D-01

 Vector  120  Occ=0.000000D+00  E= 3.512379D-01

 Vector  121  Occ=0.000000D+00  E= 3.533874D-01

 Vector  122  Occ=0.000000D+00  E= 3.582169D-01

 Vector  123  Occ=0.000000D+00  E= 3.637568D-01

 Vector  124  Occ=0.000000D+00  E= 3.688731D-01

 Vector  125  Occ=0.000000D+00  E= 3.723797D-01

 Vector  126  Occ=0.000000D+00  E= 3.776126D-01

 Vector  127  Occ=0.000000D+00  E= 3.814120D-01

 Vector  128  Occ=0.000000D+00  E= 3.826239D-01

 Vector  129  Occ=0.000000D+00  E= 3.875298D-01

 Vector  130  Occ=0.000000D+00  E= 3.969198D-01

 Vector  131  Occ=0.000000D+00  E= 3.993749D-01

 Vector  132  Occ=0.000000D+00  E= 4.001840D-01

 Vector  133  Occ=0.000000D+00  E= 4.041107D-01

 Vector  134  Occ=0.000000D+00  E= 4.100152D-01

 Vector  135  Occ=0.000000D+00  E= 4.125091D-01

 Vector  136  Occ=0.000000D+00  E= 4.220264D-01

 Vector  137  Occ=0.000000D+00  E= 4.239633D-01

 Vector  138  Occ=0.000000D+00  E= 4.299200D-01

 Vector  139  Occ=0.000000D+00  E= 4.323662D-01

 Vector  140  Occ=0.000000D+00  E= 4.387264D-01

 Vector  141  Occ=0.000000D+00  E= 4.463500D-01

 Vector  142  Occ=0.000000D+00  E= 4.510280D-01

 Vector  143  Occ=0.000000D+00  E= 4.540068D-01

 Vector  144  Occ=0.000000D+00  E= 4.584473D-01

 Vector  145  Occ=0.000000D+00  E= 4.658834D-01

 Vector  146  Occ=0.000000D+00  E= 4.688209D-01

 Vector  147  Occ=0.000000D+00  E= 4.738592D-01

 Vector  148  Occ=0.000000D+00  E= 4.788619D-01

 Vector  149  Occ=0.000000D+00  E= 4.810886D-01

 Vector  150  Occ=0.000000D+00  E= 4.879664D-01

 Vector  151  Occ=0.000000D+00  E= 4.898737D-01

 Vector  152  Occ=0.000000D+00  E= 4.969335D-01

 Vector  153  Occ=0.000000D+00  E= 5.053756D-01

       Multipole analysis of the density wrt the origin
       ------------------------------------------------

     L   x y z        total         open         nuclear
     -   - - -        -----         ----         -------
     0   0 0 0     -0.000000      0.000000    108.000000

     1   1 0 0     -0.767220      0.000000      0.000000
     1   0 1 0     -2.569682      0.000000      0.000000
     1   0 0 1      0.658336      0.000000      0.000000

     2   2 0 0    -68.868917      0.000000    743.831505
     2   1 1 0     -4.683752      0.000000     -9.849431
     2   1 0 1      1.218607      0.000000      3.762493
     2   0 2 0    -65.899932      0.000000   1989.654868
     2   0 1 1     -7.648671      0.000000    -40.815323

 Total times  cpu:     2352.5s     wall:     2549.5s
