 Output coordinates in angstroms (scale by  1.889725989 to convert to a.u.)

  No.       Tag          Charge          X              Y              Z
 ---- ---------------- ---------- -------------- -------------- --------------
    1 H                    1.0000     3.21465137     1.84995037     1.43716533
    2 C                    6.0000     2.66458666     2.30401155     0.61436143
    3 H                    1.0000     3.02608891     1.91139895    -0.33477211
    4 H                    1.0000     2.79935149     3.38354112     0.64080648
    5 C                    6.0000     1.19613338     1.97979151     0.76274381
    6 O                    8.0000     0.81306006     1.27258462     1.68755095
    7 N                    7.0000     0.37445954     2.49579499    -0.15150206
    8 H                    1.0000     0.78233745     3.02819603    -0.90144455
    9 C                    6.0000    -1.08984615     2.41487951    -0.08848181
   10 H                    1.0000    -1.41311830     2.83948218     0.86427036
   11 C                    6.0000    -1.65600188     3.28591914    -1.21720571
   12 H                    1.0000    -2.74543332     3.29295923    -1.15976379
   13 H                    1.0000    -1.29462494     4.31027465    -1.11597580
   14 H                    1.0000    -1.35513605     2.88629350    -2.18693150
   15 C                    6.0000    -1.66953413     0.98360617    -0.14953493
   16 O                    8.0000    -2.81872196     0.77679888     0.22749964
   17 N                    7.0000    -0.88815533    -0.00569776    -0.59232259
   18 H                    1.0000     0.05119053     0.23370989    -0.88993700
   19 C                    6.0000    -1.24783749    -1.43026138    -0.56093427
   20 H                    1.0000    -2.28831147    -1.51107014    -0.87831864
   21 C                    6.0000    -0.39029638    -2.19916246    -1.59189953
   22 H                    1.0000    -0.90294750    -3.13329561    -1.82439273
   23 H                    1.0000    -0.34271689    -1.62057082    -2.51660322
   24 C                    6.0000     1.04276551    -2.55660509    -1.14877159
   25 H                    1.0000     0.99097618    -3.29746878    -0.35007212
   26 H                    1.0000     1.56556925    -3.02029797    -1.98535104
   27 C                    6.0000     1.86463358    -1.36124734    -0.67612930
   28 O                    8.0000     1.87634498    -0.29782064    -1.27548019
   29 N                    7.0000     2.55167918    -1.46916820     0.43826355
   30 H                    1.0000     3.00995644    -0.63690630     0.76460093
   31 H                    1.0000     2.52172111    -2.31423516     0.97715718
   32 C                    6.0000    -1.17269480    -2.06567048     0.84652508
   33 O                    8.0000    -1.45088910    -3.24689064     1.00700519
   34 N                    7.0000    -0.75437277    -1.33930045     1.87809682
   35 H                    1.0000    -0.48040088    -0.37412982     1.74797741
   36 H                    1.0000    -0.73422943    -1.76817582     2.78719096

         Total SCF energy =   -906.636426345575

 Vector  108  Occ=0.000000D+00  E= 1.847639D-01

 Vector  109  Occ=0.000000D+00  E= 1.870751D-01

 Vector  110  Occ=0.000000D+00  E= 1.898464D-01

 Vector  111  Occ=0.000000D+00  E= 1.925321D-01

 Vector  112  Occ=0.000000D+00  E= 1.957223D-01

 Vector  113  Occ=0.000000D+00  E= 1.968611D-01

 Vector  114  Occ=0.000000D+00  E= 1.998142D-01

 Vector  115  Occ=0.000000D+00  E= 2.001881D-01

 Vector  116  Occ=0.000000D+00  E= 2.021737D-01

 Vector  117  Occ=0.000000D+00  E= 2.105635D-01

 Vector  118  Occ=0.000000D+00  E= 2.144072D-01

 Vector  119  Occ=0.000000D+00  E= 2.167583D-01

 Vector  120  Occ=0.000000D+00  E= 2.224177D-01

 Vector  121  Occ=0.000000D+00  E= 2.251942D-01

 Vector  122  Occ=0.000000D+00  E= 2.318423D-01

 Vector  123  Occ=0.000000D+00  E= 2.358397D-01

 Vector  124  Occ=0.000000D+00  E= 2.392601D-01

 Vector  125  Occ=0.000000D+00  E= 2.455586D-01

 Vector  126  Occ=0.000000D+00  E= 2.502712D-01

 Vector  127  Occ=0.000000D+00  E= 2.553622D-01

 Vector  128  Occ=0.000000D+00  E= 2.629116D-01

 Vector  129  Occ=0.000000D+00  E= 2.643614D-01

 Vector  130  Occ=0.000000D+00  E= 2.693512D-01

 Vector  131  Occ=0.000000D+00  E= 2.748346D-01

 Vector  132  Occ=0.000000D+00  E= 2.809907D-01

 Vector  133  Occ=0.000000D+00  E= 2.873198D-01

 Vector  134  Occ=0.000000D+00  E= 2.902901D-01

 Vector  135  Occ=0.000000D+00  E= 2.984087D-01

 Vector  136  Occ=0.000000D+00  E= 3.023634D-01

 Vector  137  Occ=0.000000D+00  E= 3.038206D-01

 Vector  138  Occ=0.000000D+00  E= 3.140253D-01

 Vector  139  Occ=0.000000D+00  E= 3.179527D-01

 Vector  140  Occ=0.000000D+00  E= 3.243511D-01

 Vector  141  Occ=0.000000D+00  E= 3.289329D-01

 Vector  142  Occ=0.000000D+00  E= 3.340546D-01

 Vector  143  Occ=0.000000D+00  E= 3.358586D-01

 Vector  144  Occ=0.000000D+00  E= 3.389760D-01

 Vector  145  Occ=0.000000D+00  E= 3.432165D-01

 Vector  146  Occ=0.000000D+00  E= 3.438530D-01

 Vector  147  Occ=0.000000D+00  E= 3.510812D-01

 Vector  148  Occ=0.000000D+00  E= 3.568260D-01

 Vector  149  Occ=0.000000D+00  E= 3.616016D-01

 Vector  150  Occ=0.000000D+00  E= 3.638551D-01

 Vector  151  Occ=0.000000D+00  E= 3.699068D-01

 Vector  152  Occ=0.000000D+00  E= 3.736527D-01

 Vector  153  Occ=0.000000D+00  E= 3.758060D-01

 Vector  154  Occ=0.000000D+00  E= 3.777033D-01

 Vector  155  Occ=0.000000D+00  E= 3.812048D-01

 Vector  156  Occ=0.000000D+00  E= 3.860414D-01

 Vector  157  Occ=0.000000D+00  E= 3.908874D-01

 Vector  158  Occ=0.000000D+00  E= 3.939329D-01

 Vector  159  Occ=0.000000D+00  E= 3.959665D-01

 Vector  160  Occ=0.000000D+00  E= 4.018842D-01

 Vector  161  Occ=0.000000D+00  E= 4.037794D-01

 Vector  162  Occ=0.000000D+00  E= 4.079380D-01

 Vector  163  Occ=0.000000D+00  E= 4.131586D-01

 Vector  164  Occ=0.000000D+00  E= 4.145450D-01

 Vector  165  Occ=0.000000D+00  E= 4.175730D-01

 Vector  166  Occ=0.000000D+00  E= 4.199796D-01

 Vector  167  Occ=0.000000D+00  E= 4.236333D-01

 Vector  168  Occ=0.000000D+00  E= 4.297843D-01

 Vector  169  Occ=0.000000D+00  E= 4.313340D-01

 Vector  170  Occ=0.000000D+00  E= 4.325401D-01

 Vector  171  Occ=0.000000D+00  E= 4.373539D-01

 Vector  172  Occ=0.000000D+00  E= 4.439921D-01

 Vector  173  Occ=0.000000D+00  E= 4.482069D-01

 Vector  174  Occ=0.000000D+00  E= 4.503277D-01

 Vector  175  Occ=0.000000D+00  E= 4.532380D-01

 Vector  176  Occ=0.000000D+00  E= 4.603846D-01

 Vector  177  Occ=0.000000D+00  E= 4.609887D-01

 Vector  178  Occ=0.000000D+00  E= 4.671584D-01

 Vector  179  Occ=0.000000D+00  E= 4.687991D-01

 Vector  180  Occ=0.000000D+00  E= 4.742208D-01

 Vector  181  Occ=0.000000D+00  E= 4.797977D-01

 Vector  182  Occ=0.000000D+00  E= 4.817339D-01

 Vector  183  Occ=0.000000D+00  E= 4.881568D-01

 Vector  184  Occ=0.000000D+00  E= 4.893177D-01

 Vector  185  Occ=0.000000D+00  E= 4.918148D-01

 Vector  186  Occ=0.000000D+00  E= 4.983631D-01

 Vector  187  Occ=0.000000D+00  E= 5.040012D-01

       Multipole analysis of the density wrt the origin
       ------------------------------------------------

     L   x y z        total         open         nuclear
     -   - - -        -----         ----         -------
     0   0 0 0     -0.000000      0.000000    138.000000

     1   1 0 0      2.520704      0.000000     -0.000000
     1   0 1 0      1.364455      0.000000      0.000000
     1   0 0 1     -0.841375      0.000000      0.000000

     2   2 0 0    -86.037632      0.000000   1335.873569
     2   1 1 0     -6.044875      0.000000    -11.018985
     2   1 0 1      7.426060      0.000000     24.496334
     2   0 2 0    -74.849937      0.000000   2034.041369
     2   0 1 1      0.123196      0.000000     -2.484473

 Total times  cpu:     6371.3s     wall:     6508.7s
