 Output coordinates in angstroms (scale by  1.889725989 to convert to a.u.)

  No.       Tag          Charge          X              Y              Z
 ---- ---------------- ---------- -------------- -------------- --------------
    1 H                    1.0000    -3.09239255    -1.97234461    -0.34162201
    2 C                    6.0000    -2.71667668    -2.36552376     0.60050417
    3 H                    1.0000    -2.81674618    -3.44927421     0.62067941
    4 H                    1.0000    -3.28300966    -1.93391032     1.42550587
    5 C                    6.0000    -1.26264713    -1.99093000     0.75882530
    6 O                    8.0000    -0.90483610    -1.28472865     1.69056181
    7 N                    7.0000    -0.42140028    -2.43986461    -0.17270971
    8 H                    1.0000    -0.79332770    -3.01543817    -0.90998514
    9 C                    6.0000     1.03392611    -2.23328490    -0.13629674
   10 H                    1.0000     1.40529873    -2.60899899     0.81887199
   11 C                    6.0000     1.65495346    -3.07884773    -1.25555075
   12 H                    1.0000     1.37926872    -4.12651561    -1.13124897
   13 H                    1.0000     1.31380941    -2.72286799    -2.22966119
   14 H                    1.0000     2.74267432    -2.99724400    -1.21184546
   15 C                    6.0000     1.48847585    -0.75648889    -0.23022806
   16 O                    8.0000     2.66146599    -0.46304311    -0.02133168
   17 N                    7.0000     0.57963052     0.17346681    -0.53554193
   18 H                    1.0000    -0.37343906    -0.12429145    -0.67010562
   19 C                    6.0000     0.80997510     1.61909116    -0.48367072
   20 H                    1.0000     1.82867140     1.82892847    -0.81607281
   21 C                    6.0000    -0.16712808     2.29319281    -1.45963246
   22 H                    1.0000    -0.07366373     3.37697575    -1.35776520
   23 H                    1.0000     0.09257900     2.01587073    -2.48233022
   24 S                   16.0000    -1.88454527     1.79372003    -1.11559297
   25 H                    1.0000    -2.48180422     2.74087671    -1.84935994
   26 C                    6.0000     0.69241039     2.22241584     0.93325266
   27 O                    8.0000     0.97605468     3.39984529     1.12010772
   28 N                    7.0000     0.27400567     1.46941003     1.94479244
   29 H                    1.0000     0.20903508     1.88884529     2.85668163
   30 H                    1.0000     0.00890865     0.50444673     1.79403632

         Total SCF energy =  -1097.310485879394

 Vector   89  Occ=0.000000D+00  E= 1.573498D-01

 Vector   90  Occ=0.000000D+00  E= 1.603472D-01

 Vector   91  Occ=0.000000D+00  E= 1.632799D-01

 Vector   92  Occ=0.000000D+00  E= 1.649299D-01

 Vector   93  Occ=0.000000D+00  E= 1.698035D-01

 Vector   94  Occ=0.000000D+00  E= 1.707830D-01

 Vector   95  Occ=0.000000D+00  E= 1.737690D-01

 Vector   96  Occ=0.000000D+00  E= 1.748307D-01

 Vector   97  Occ=0.000000D+00  E= 1.771727D-01

 Vector   98  Occ=0.000000D+00  E= 1.810779D-01

 Vector   99  Occ=0.000000D+00  E= 1.853029D-01

 Vector  100  Occ=0.000000D+00  E= 1.899692D-01

 Vector  101  Occ=0.000000D+00  E= 1.933284D-01

 Vector  102  Occ=0.000000D+00  E= 1.969666D-01

 Vector  103  Occ=0.000000D+00  E= 2.023865D-01

 Vector  104  Occ=0.000000D+00  E= 2.026650D-01

 Vector  105  Occ=0.000000D+00  E= 2.046408D-01

 Vector  106  Occ=0.000000D+00  E= 2.102542D-01

 Vector  107  Occ=0.000000D+00  E= 2.107083D-01

 Vector  108  Occ=0.000000D+00  E= 2.187711D-01

 Vector  109  Occ=0.000000D+00  E= 2.214335D-01

 Vector  110  Occ=0.000000D+00  E= 2.277145D-01

 Vector  111  Occ=0.000000D+00  E= 2.329050D-01

 Vector  112  Occ=0.000000D+00  E= 2.371244D-01

 Vector  113  Occ=0.000000D+00  E= 2.461794D-01

 Vector  114  Occ=0.000000D+00  E= 2.512433D-01

 Vector  115  Occ=0.000000D+00  E= 2.583881D-01

 Vector  116  Occ=0.000000D+00  E= 2.621125D-01

 Vector  117  Occ=0.000000D+00  E= 2.711410D-01

 Vector  118  Occ=0.000000D+00  E= 2.779203D-01

 Vector  119  Occ=0.000000D+00  E= 2.831383D-01

 Vector  120  Occ=0.000000D+00  E= 2.835572D-01

 Vector  121  Occ=0.000000D+00  E= 2.915056D-01

 Vector  122  Occ=0.000000D+00  E= 2.959268D-01

 Vector  123  Occ=0.000000D+00  E= 3.019868D-01

 Vector  124  Occ=0.000000D+00  E= 3.125075D-01

 Vector  125  Occ=0.000000D+00  E= 3.175735D-01

 Vector  126  Occ=0.000000D+00  E= 3.283009D-01

 Vector  127  Occ=0.000000D+00  E= 3.293258D-01

 Vector  128  Occ=0.000000D+00  E= 3.331517D-01

 Vector  129  Occ=0.000000D+00  E= 3.353091D-01

 Vector  130  Occ=0.000000D+00  E= 3.417855D-01

 Vector  131  Occ=0.000000D+00  E= 3.501061D-01

 Vector  132  Occ=0.000000D+00  E= 3.518724D-01

 Vector  133  Occ=0.000000D+00  E= 3.589813D-01

 Vector  134  Occ=0.000000D+00  E= 3.598304D-01

 Vector  135  Occ=0.000000D+00  E= 3.648886D-01

 Vector  136  Occ=0.000000D+00  E= 3.665349D-01

 Vector  137  Occ=0.000000D+00  E= 3.688403D-01

 Vector  138  Occ=0.000000D+00  E= 3.718254D-01

 Vector  139  Occ=0.000000D+00  E= 3.832525D-01

 Vector  140  Occ=0.000000D+00  E= 3.853000D-01

 Vector  141  Occ=0.000000D+00  E= 3.879047D-01

 Vector  142  Occ=0.000000D+00  E= 3.933474D-01

 Vector  143  Occ=0.000000D+00  E= 3.971966D-01

 Vector  144  Occ=0.000000D+00  E= 4.012072D-01

 Vector  145  Occ=0.000000D+00  E= 4.038279D-01

 Vector  146  Occ=0.000000D+00  E= 4.051200D-01

 Vector  147  Occ=0.000000D+00  E= 4.103509D-01

 Vector  148  Occ=0.000000D+00  E= 4.148665D-01

 Vector  149  Occ=0.000000D+00  E= 4.184236D-01

 Vector  150  Occ=0.000000D+00  E= 4.214369D-01

 Vector  151  Occ=0.000000D+00  E= 4.307569D-01

 Vector  152  Occ=0.000000D+00  E= 4.334791D-01

 Vector  153  Occ=0.000000D+00  E= 4.358633D-01

 Vector  154  Occ=0.000000D+00  E= 4.411349D-01

 Vector  155  Occ=0.000000D+00  E= 4.469977D-01

 Vector  156  Occ=0.000000D+00  E= 4.499659D-01

 Vector  157  Occ=0.000000D+00  E= 4.522111D-01

 Vector  158  Occ=0.000000D+00  E= 4.591952D-01

 Vector  159  Occ=0.000000D+00  E= 4.640605D-01

 Vector  160  Occ=0.000000D+00  E= 4.691907D-01

 Vector  161  Occ=0.000000D+00  E= 4.742751D-01

 Vector  162  Occ=0.000000D+00  E= 4.773176D-01

 Vector  163  Occ=0.000000D+00  E= 4.840551D-01

 Vector  164  Occ=0.000000D+00  E= 4.849371D-01

 Vector  165  Occ=0.000000D+00  E= 4.895411D-01

 Vector  166  Occ=0.000000D+00  E= 4.923313D-01

 Vector  167  Occ=0.000000D+00  E= 4.997619D-01

 Vector  168  Occ=0.000000D+00  E= 5.061856D-01

       Multipole analysis of the density wrt the origin
       ------------------------------------------------

     L   x y z        total         open         nuclear
     -   - - -        -----         ----         -------
     0   0 0 0      0.000000      0.000000    124.000000

     1   1 0 0     -1.895949      0.000000     -0.000000
     1   0 1 0     -2.499630      0.000000     -0.000000
     1   0 0 1     -1.769068      0.000000      0.000000

     2   2 0 0    -78.337520      0.000000   1001.621328
     2   1 1 0     -1.977715      0.000000      0.746288
     2   1 0 1     -0.855352      0.000000    -12.990156
     2   0 2 0    -70.726722      0.000000   1926.192416
     2   0 1 1     -3.728140      0.000000      2.086303

 Total times  cpu:     3706.4s     wall:     3767.6s
