 Output coordinates in angstroms (scale by  1.889725989 to convert to a.u.)

  No.       Tag          Charge          X              Y              Z
 ---- ---------------- ---------- -------------- -------------- --------------
    1 H                    1.0000    -1.79618624    -4.77027944    -0.27887301
    2 C                    6.0000    -2.16866866    -3.74860885    -0.22836514
    3 H                    1.0000    -3.04981369    -3.71459355     0.41164454
    4 H                    1.0000    -2.43099123    -3.39750827    -1.22505478
    5 C                    6.0000    -1.10308401    -2.85397607     0.35723759
    6 O                    8.0000    -1.31976136    -2.22708927     1.38538781
    7 N                    7.0000     0.04867310    -2.77694099    -0.30812783
    8 H                    1.0000     0.13812649    -3.31540788    -1.15372673
    9 C                    6.0000     1.21512314    -1.98867649     0.11239019
   10 H                    1.0000     1.34055174    -2.12884057     1.18789504
   11 C                    6.0000     2.45516671    -2.57821372    -0.57717981
   12 H                    1.0000     2.38278921    -2.44490295    -1.65764579
   13 H                    1.0000     3.35075534    -2.06726142    -0.21854106
   14 H                    1.0000     2.54343050    -3.64028804    -0.34553648
   15 C                    6.0000     1.05349877    -0.46241479    -0.10959358
   16 O                    8.0000     1.92680983     0.18064812    -0.68788838
   17 N                    7.0000    -0.07808852     0.10679291     0.32863215
   18 H                    1.0000    -0.71179650    -0.51508730     0.82086502
   19 C                    6.0000    -0.52471502     1.51368659     0.18876453
   20 H                    1.0000    -1.50491074     1.56900787     0.66071464
   21 C                    6.0000     0.38192059     2.48742401     0.97945177
   22 H                    1.0000     1.38402562     2.47792792     0.55210023
   23 C                    6.0000    -0.13611832     3.93236143     0.93024252
   24 H                    1.0000    -0.11928495     4.30668844    -0.09278139
   25 H                    1.0000    -1.15723299     3.97803476     1.31094815
   26 H                    1.0000     0.50209031     4.57713633     1.53430550
   27 C                    6.0000     0.48143521     2.08824942     2.45956510
   28 H                    1.0000     0.94739235     1.10769079     2.55623835
   29 H                    1.0000     1.10048908     2.80802966     2.99626121
   30 H                    1.0000    -0.51141580     2.06255176     2.90931670
   31 C                    6.0000    -0.75967010     1.98466574    -1.25695424
   32 O                    8.0000    -1.79772002     2.56335941    -1.55036693
   33 N                    7.0000     0.14177332     1.73113303    -2.19301135
   34 H                    1.0000     0.99740413     1.25452468    -1.93853268
   35 H                    1.0000    -0.03588542     2.04335294    -3.13246178

         Total SCF energy =   -777.854295130524

 Vector   97  Occ=0.000000D+00  E= 1.725494D-01

 Vector   98  Occ=0.000000D+00  E= 1.755520D-01

 Vector   99  Occ=0.000000D+00  E= 1.771168D-01

 Vector  100  Occ=0.000000D+00  E= 1.802788D-01

 Vector  101  Occ=0.000000D+00  E= 1.820760D-01

 Vector  102  Occ=0.000000D+00  E= 1.874511D-01

 Vector  103  Occ=0.000000D+00  E= 1.898936D-01

 Vector  104  Occ=0.000000D+00  E= 1.923505D-01

 Vector  105  Occ=0.000000D+00  E= 1.931559D-01

 Vector  106  Occ=0.000000D+00  E= 2.008750D-01

 Vector  107  Occ=0.000000D+00  E= 2.010848D-01

 Vector  108  Occ=0.000000D+00  E= 2.078301D-01

 Vector  109  Occ=0.000000D+00  E= 2.103310D-01

 Vector  110  Occ=0.000000D+00  E= 2.163571D-01

 Vector  111  Occ=0.000000D+00  E= 2.187241D-01

 Vector  112  Occ=0.000000D+00  E= 2.219522D-01

 Vector  113  Occ=0.000000D+00  E= 2.238820D-01

 Vector  114  Occ=0.000000D+00  E= 2.325617D-01

 Vector  115  Occ=0.000000D+00  E= 2.336410D-01

 Vector  116  Occ=0.000000D+00  E= 2.416216D-01

 Vector  117  Occ=0.000000D+00  E= 2.427130D-01

 Vector  118  Occ=0.000000D+00  E= 2.464596D-01

 Vector  119  Occ=0.000000D+00  E= 2.500899D-01

 Vector  120  Occ=0.000000D+00  E= 2.556599D-01

 Vector  121  Occ=0.000000D+00  E= 2.644531D-01

 Vector  122  Occ=0.000000D+00  E= 2.684767D-01

 Vector  123  Occ=0.000000D+00  E= 2.739845D-01

 Vector  124  Occ=0.000000D+00  E= 2.849994D-01

 Vector  125  Occ=0.000000D+00  E= 2.858369D-01

 Vector  126  Occ=0.000000D+00  E= 2.917247D-01

 Vector  127  Occ=0.000000D+00  E= 2.922603D-01

 Vector  128  Occ=0.000000D+00  E= 3.090425D-01

 Vector  129  Occ=0.000000D+00  E= 3.186562D-01

 Vector  130  Occ=0.000000D+00  E= 3.259541D-01

 Vector  131  Occ=0.000000D+00  E= 3.283121D-01

 Vector  132  Occ=0.000000D+00  E= 3.307317D-01

 Vector  133  Occ=0.000000D+00  E= 3.325577D-01

 Vector  134  Occ=0.000000D+00  E= 3.361834D-01

 Vector  135  Occ=0.000000D+00  E= 3.379029D-01

 Vector  136  Occ=0.000000D+00  E= 3.409150D-01

 Vector  137  Occ=0.000000D+00  E= 3.504419D-01

 Vector  138  Occ=0.000000D+00  E= 3.536499D-01

 Vector  139  Occ=0.000000D+00  E= 3.549190D-01

 Vector  140  Occ=0.000000D+00  E= 3.617983D-01

 Vector  141  Occ=0.000000D+00  E= 3.642462D-01

 Vector  142  Occ=0.000000D+00  E= 3.672588D-01

 Vector  143  Occ=0.000000D+00  E= 3.698511D-01

 Vector  144  Occ=0.000000D+00  E= 3.717950D-01

 Vector  145  Occ=0.000000D+00  E= 3.791188D-01

 Vector  146  Occ=0.000000D+00  E= 3.837189D-01

 Vector  147  Occ=0.000000D+00  E= 3.853752D-01

 Vector  148  Occ=0.000000D+00  E= 3.887825D-01

 Vector  149  Occ=0.000000D+00  E= 3.932532D-01

 Vector  150  Occ=0.000000D+00  E= 4.017996D-01

 Vector  151  Occ=0.000000D+00  E= 4.037017D-01

 Vector  152  Occ=0.000000D+00  E= 4.079517D-01

 Vector  153  Occ=0.000000D+00  E= 4.084248D-01

 Vector  154  Occ=0.000000D+00  E= 4.104473D-01

 Vector  155  Occ=0.000000D+00  E= 4.142424D-01

 Vector  156  Occ=0.000000D+00  E= 4.174989D-01

 Vector  157  Occ=0.000000D+00  E= 4.228651D-01

 Vector  158  Occ=0.000000D+00  E= 4.251317D-01

 Vector  159  Occ=0.000000D+00  E= 4.308565D-01

 Vector  160  Occ=0.000000D+00  E= 4.342916D-01

 Vector  161  Occ=0.000000D+00  E= 4.356650D-01

 Vector  162  Occ=0.000000D+00  E= 4.469437D-01

 Vector  163  Occ=0.000000D+00  E= 4.499088D-01

 Vector  164  Occ=0.000000D+00  E= 4.508822D-01

 Vector  165  Occ=0.000000D+00  E= 4.544025D-01

 Vector  166  Occ=0.000000D+00  E= 4.544818D-01

 Vector  167  Occ=0.000000D+00  E= 4.669652D-01

 Vector  168  Occ=0.000000D+00  E= 4.717134D-01

 Vector  169  Occ=0.000000D+00  E= 4.746971D-01

 Vector  170  Occ=0.000000D+00  E= 4.780864D-01

 Vector  171  Occ=0.000000D+00  E= 4.826623D-01

 Vector  172  Occ=0.000000D+00  E= 4.865320D-01

 Vector  173  Occ=0.000000D+00  E= 4.890808D-01

 Vector  174  Occ=0.000000D+00  E= 4.909405D-01

 Vector  175  Occ=0.000000D+00  E= 4.972819D-01

 Vector  176  Occ=0.000000D+00  E= 5.010510D-01

       Multipole analysis of the density wrt the origin
       ------------------------------------------------

     L   x y z        total         open         nuclear
     -   - - -        -----         ----         -------
     0   0 0 0     -0.000000      0.000000    124.000000

     1   1 0 0      0.857989      0.000000      0.000000
     1   0 1 0     -2.329877      0.000000      0.000000
     1   0 0 1     -0.310451      0.000000      0.000000

     2   2 0 0    -79.243764      0.000000    777.321633
     2   1 1 0      5.354364      0.000000     10.111405
     2   1 0 1     -0.612043      0.000000     -1.725022
     2   0 2 0    -65.779824      0.000000   2605.096837
     2   0 1 1      9.353666      0.000000     58.871468

 Total times  cpu:    10780.4s     wall:    10830.0s
