 Output coordinates in angstroms (scale by  1.889725989 to convert to a.u.)

  No.       Tag          Charge          X              Y              Z
 ---- ---------------- ---------- -------------- -------------- --------------
    1 H                    1.0000     2.29669465     3.73525713    -0.21281226
    2 C                    6.0000     2.37647543     2.69927347    -0.53422304
    3 H                    1.0000     3.34835188     2.30044795    -0.24553397
    4 H                    1.0000     2.26348792     2.63445856    -1.61509854
    5 C                    6.0000     1.29403991     1.88109517     0.12887169
    6 O                    8.0000     1.58648439     0.93014449     0.84466847
    7 N                    7.0000     0.03450267     2.24386024    -0.11042194
    8 H                    1.0000    -0.13838021     3.00436102    -0.74510852
    9 C                    6.0000    -1.11232055     1.49749436     0.40457756
   10 H                    1.0000    -1.02676272     1.44157242     1.49067083
   11 C                    6.0000    -2.39781132     2.26457487     0.06636760
   12 H                    1.0000    -2.36239261     3.26341217     0.50410217
   13 H                    1.0000    -2.50847639     2.34590391    -1.01610542
   14 H                    1.0000    -3.25878123     1.73108256     0.46935490
   15 C                    6.0000    -1.12947439     0.06137339    -0.15643874
   16 O                    8.0000    -1.15633323    -0.13506743    -1.36833132
   17 N                    7.0000    -1.09861689    -0.93922069     0.73049773
   18 H                    1.0000    -1.04180236    -0.70520166     1.70852595
   19 C                    6.0000    -0.98977661    -2.35620619     0.35736521
   20 H                    1.0000    -1.32703114    -2.96959071     1.19260757
   21 H                    1.0000    -1.64489517    -2.55335628    -0.49318374
   22 C                    6.0000     0.42374833    -2.82509078    -0.02749775
   23 O                    8.0000     0.61339742    -3.99508824    -0.33084601
   24 N                    7.0000     1.43812990    -1.96934499     0.00186499
   25 H                    1.0000     2.35067254    -2.30633683    -0.25352966
   26 H                    1.0000     1.29353161    -1.00406849     0.26446090

         Total SCF energy =   -660.744746035755

 Vector   62  Occ=0.000000D+00  E= 9.003930D-02

 Vector   63  Occ=0.000000D+00  E= 9.483794D-02

 Vector   64  Occ=0.000000D+00  E= 1.045148D-01

 Vector   65  Occ=0.000000D+00  E= 1.163558D-01

 Vector   66  Occ=0.000000D+00  E= 1.180030D-01

 Vector   67  Occ=0.000000D+00  E= 1.288968D-01

 Vector   68  Occ=0.000000D+00  E= 1.315505D-01

 Vector   69  Occ=0.000000D+00  E= 1.351723D-01

 Vector   70  Occ=0.000000D+00  E= 1.417821D-01

 Vector   71  Occ=0.000000D+00  E= 1.458968D-01

 Vector   72  Occ=0.000000D+00  E= 1.494361D-01

 Vector   73  Occ=0.000000D+00  E= 1.521355D-01

 Vector   74  Occ=0.000000D+00  E= 1.544347D-01

 Vector   75  Occ=0.000000D+00  E= 1.587885D-01

 Vector   76  Occ=0.000000D+00  E= 1.611222D-01

 Vector   77  Occ=0.000000D+00  E= 1.644291D-01

 Vector   78  Occ=0.000000D+00  E= 1.702874D-01

 Vector   79  Occ=0.000000D+00  E= 1.720938D-01

 Vector   80  Occ=0.000000D+00  E= 1.757908D-01

 Vector   81  Occ=0.000000D+00  E= 1.762840D-01

 Vector   82  Occ=0.000000D+00  E= 1.802714D-01

 Vector   83  Occ=0.000000D+00  E= 1.824961D-01

 Vector   84  Occ=0.000000D+00  E= 1.842416D-01

 Vector   85  Occ=0.000000D+00  E= 1.885920D-01

 Vector   86  Occ=0.000000D+00  E= 1.935777D-01

 Vector   87  Occ=0.000000D+00  E= 2.009452D-01

 Vector   88  Occ=0.000000D+00  E= 2.067965D-01

 Vector   89  Occ=0.000000D+00  E= 2.159606D-01

 Vector   90  Occ=0.000000D+00  E= 2.231347D-01

 Vector   91  Occ=0.000000D+00  E= 2.260239D-01

 Vector   92  Occ=0.000000D+00  E= 2.337459D-01

 Vector   93  Occ=0.000000D+00  E= 2.434101D-01

 Vector   94  Occ=0.000000D+00  E= 2.452697D-01

 Vector   95  Occ=0.000000D+00  E= 2.504585D-01

 Vector   96  Occ=0.000000D+00  E= 2.566050D-01

 Vector   97  Occ=0.000000D+00  E= 2.591574D-01

 Vector   98  Occ=0.000000D+00  E= 2.708173D-01

 Vector   99  Occ=0.000000D+00  E= 2.762125D-01

 Vector  100  Occ=0.000000D+00  E= 2.826446D-01

 Vector  101  Occ=0.000000D+00  E= 2.919471D-01

 Vector  102  Occ=0.000000D+00  E= 2.932429D-01

 Vector  103  Occ=0.000000D+00  E= 3.098430D-01

 Vector  104  Occ=0.000000D+00  E= 3.108987D-01

 Vector  105  Occ=0.000000D+00  E= 3.179290D-01

 Vector  106  Occ=0.000000D+00  E= 3.222327D-01

 Vector  107  Occ=0.000000D+00  E= 3.250385D-01

 Vector  108  Occ=0.000000D+00  E= 3.359081D-01

 Vector  109  Occ=0.000000D+00  E= 3.388115D-01

 Vector  110  Occ=0.000000D+00  E= 3.435331D-01

 Vector  111  Occ=0.000000D+00  E= 3.500967D-01

 Vector  112  Occ=0.000000D+00  E= 3.515836D-01

 Vector  113  Occ=0.000000D+00  E= 3.556757D-01

 Vector  114  Occ=0.000000D+00  E= 3.650182D-01

 Vector  115  Occ=0.000000D+00  E= 3.687425D-01

 Vector  116  Occ=0.000000D+00  E= 3.691568D-01

 Vector  117  Occ=0.000000D+00  E= 3.793579D-01

 Vector  118  Occ=0.000000D+00  E= 3.816060D-01

 Vector  119  Occ=0.000000D+00  E= 3.866365D-01

 Vector  120  Occ=0.000000D+00  E= 3.906601D-01

 Vector  121  Occ=0.000000D+00  E= 3.946571D-01

 Vector  122  Occ=0.000000D+00  E= 3.976786D-01

 Vector  123  Occ=0.000000D+00  E= 4.030997D-01

 Vector  124  Occ=0.000000D+00  E= 4.077794D-01

 Vector  125  Occ=0.000000D+00  E= 4.129584D-01

 Vector  126  Occ=0.000000D+00  E= 4.157056D-01

 Vector  127  Occ=0.000000D+00  E= 4.227390D-01

 Vector  128  Occ=0.000000D+00  E= 4.302704D-01

 Vector  129  Occ=0.000000D+00  E= 4.310995D-01

 Vector  130  Occ=0.000000D+00  E= 4.418816D-01

 Vector  131  Occ=0.000000D+00  E= 4.443134D-01

 Vector  132  Occ=0.000000D+00  E= 4.514412D-01

 Vector  133  Occ=0.000000D+00  E= 4.658125D-01

 Vector  134  Occ=0.000000D+00  E= 4.701526D-01

 Vector  135  Occ=0.000000D+00  E= 4.743747D-01

 Vector  136  Occ=0.000000D+00  E= 4.769105D-01

 Vector  137  Occ=0.000000D+00  E= 4.798676D-01

 Vector  138  Occ=0.000000D+00  E= 4.853093D-01

 Vector  139  Occ=0.000000D+00  E= 4.943891D-01

 Vector  140  Occ=0.000000D+00  E= 4.983197D-01

 Vector  141  Occ=0.000000D+00  E= 5.014533D-01

       Multipole analysis of the density wrt the origin
       ------------------------------------------------

     L   x y z        total         open         nuclear
     -   - - -        -----         ----         -------
     0   0 0 0     -0.000000      0.000000    100.000000

     1   1 0 0     -0.576319      0.000000     -0.000000
     1   0 1 0      3.124846      0.000000      0.000000
     1   0 0 1      0.999007      0.000000      0.000000

     2   2 0 0    -52.895124      0.000000    768.375514
     2   1 1 0      3.444962      0.000000      5.612896
     2   1 0 1     -6.756303      0.000000    -16.589076
     2   0 2 0    -65.157051      0.000000   1686.663964
     2   0 1 1     -6.413621      0.000000    -15.454134

 Total times  cpu:     2172.5s     wall:     2408.8s
