 Output coordinates in angstroms (scale by  1.889725989 to convert to a.u.)

  No.       Tag          Charge          X              Y              Z
 ---- ---------------- ---------- -------------- -------------- --------------
    1 H                    1.0000     0.85059650    -5.84393198    -1.12853436
    2 C                    6.0000    -0.20249170    -5.58875720    -1.22559656
    3 H                    1.0000    -0.81225380    -6.47017606    -1.03423053
    4 H                    1.0000    -0.40439742    -5.21410764    -2.22779254
    5 C                    6.0000    -0.55353087    -4.52270162    -0.21292929
    6 O                    8.0000    -1.40528538    -4.74002882     0.63769233
    7 N                    7.0000     0.10252458    -3.36958989    -0.31248621
    8 H                    1.0000     0.76555743    -3.25180855    -1.06383167
    9 C                    6.0000    -0.10482901    -2.21554176     0.56150602
   10 H                    1.0000    -1.15016383    -2.19320570     0.87577218
   11 C                    6.0000     0.77447854    -2.37285568     1.81011828
   12 H                    1.0000     1.82687721    -2.40100764     1.52344337
   13 H                    1.0000     0.61457227    -1.53426532     2.48894608
   14 H                    1.0000     0.51841977    -3.29776995     2.33004952
   15 C                    6.0000     0.19526929    -0.89750190    -0.17612865
   16 O                    8.0000     0.88542419    -0.88980926    -1.19693816
   17 N                    7.0000    -0.31090498     0.22306783     0.34634345
   18 H                    1.0000    -0.83143396     0.15884076     1.20750050
   19 C                    6.0000    -0.00605153     1.55949578    -0.16939651
   20 H                    1.0000    -0.09223828     1.53322569    -1.25666038
   21 C                    6.0000    -1.04823142     2.55392861     0.38129708
   22 H                    1.0000    -2.04012227     2.23718279     0.05472299
   23 H                    1.0000    -1.02157133     2.50803096     1.47108956
   24 C                    6.0000    -0.82930110     4.02066781    -0.03931036
   25 H                    1.0000     0.15348691     4.35639600     0.29123966
   26 C                    6.0000    -0.93369383     4.21126028    -1.55497611
   27 H                    1.0000    -0.83487504     5.26947853    -1.79717432
   28 H                    1.0000    -0.13354582     3.67269980    -2.05982239
   29 H                    1.0000    -1.89728459     3.85037834    -1.91263247
   30 C                    6.0000    -1.88498366     4.90597749     0.62293061
   31 H                    1.0000    -2.88290225     4.60888888     0.30062973
   32 H                    1.0000    -1.81323205     4.81294131     1.70650108
   33 H                    1.0000    -1.71362915     5.94803720     0.35331942
   34 C                    6.0000     1.43606922     1.96116840     0.19144812
   35 O                    8.0000     1.78708669     2.06507155     1.36021536
   36 N                    7.0000     2.27831679     2.22079376    -0.79812487
   37 H                    1.0000     1.99254874     2.08080449    -1.75261355
   38 H                    1.0000     3.22200877     2.47675713    -0.56158057

         Total SCF energy =   -816.896352053688

 Vector  112  Occ=0.000000D+00  E= 1.930457D-01

 Vector  113  Occ=0.000000D+00  E= 1.976859D-01

 Vector  114  Occ=0.000000D+00  E= 1.989135D-01

 Vector  115  Occ=0.000000D+00  E= 2.023627D-01

 Vector  116  Occ=0.000000D+00  E= 2.030361D-01

 Vector  117  Occ=0.000000D+00  E= 2.114122D-01

 Vector  118  Occ=0.000000D+00  E= 2.132816D-01

 Vector  119  Occ=0.000000D+00  E= 2.158736D-01

 Vector  120  Occ=0.000000D+00  E= 2.184819D-01

 Vector  121  Occ=0.000000D+00  E= 2.210202D-01

 Vector  122  Occ=0.000000D+00  E= 2.259715D-01

 Vector  123  Occ=0.000000D+00  E= 2.265936D-01

 Vector  124  Occ=0.000000D+00  E= 2.313590D-01

 Vector  125  Occ=0.000000D+00  E= 2.351259D-01

 Vector  126  Occ=0.000000D+00  E= 2.437518D-01

 Vector  127  Occ=0.000000D+00  E= 2.453709D-01

 Vector  128  Occ=0.000000D+00  E= 2.533057D-01

 Vector  129  Occ=0.000000D+00  E= 2.578816D-01

 Vector  130  Occ=0.000000D+00  E= 2.655219D-01

 Vector  131  Occ=0.000000D+00  E= 2.672215D-01

 Vector  132  Occ=0.000000D+00  E= 2.743431D-01

 Vector  133  Occ=0.000000D+00  E= 2.804664D-01

 Vector  134  Occ=0.000000D+00  E= 2.876595D-01

 Vector  135  Occ=0.000000D+00  E= 2.912664D-01

 Vector  136  Occ=0.000000D+00  E= 3.028187D-01

 Vector  137  Occ=0.000000D+00  E= 3.084193D-01

 Vector  138  Occ=0.000000D+00  E= 3.126816D-01

 Vector  139  Occ=0.000000D+00  E= 3.144522D-01

 Vector  140  Occ=0.000000D+00  E= 3.187849D-01

 Vector  141  Occ=0.000000D+00  E= 3.212430D-01

 Vector  142  Occ=0.000000D+00  E= 3.313429D-01

 Vector  143  Occ=0.000000D+00  E= 3.355634D-01

 Vector  144  Occ=0.000000D+00  E= 3.401243D-01

 Vector  145  Occ=0.000000D+00  E= 3.423636D-01

 Vector  146  Occ=0.000000D+00  E= 3.438568D-01

 Vector  147  Occ=0.000000D+00  E= 3.454680D-01

 Vector  148  Occ=0.000000D+00  E= 3.545779D-01

 Vector  149  Occ=0.000000D+00  E= 3.564197D-01

 Vector  150  Occ=0.000000D+00  E= 3.586002D-01

 Vector  151  Occ=0.000000D+00  E= 3.611567D-01

 Vector  152  Occ=0.000000D+00  E= 3.642362D-01

 Vector  153  Occ=0.000000D+00  E= 3.672586D-01

 Vector  154  Occ=0.000000D+00  E= 3.728346D-01

 Vector  155  Occ=0.000000D+00  E= 3.761972D-01

 Vector  156  Occ=0.000000D+00  E= 3.801716D-01

 Vector  157  Occ=0.000000D+00  E= 3.830665D-01

 Vector  158  Occ=0.000000D+00  E= 3.896728D-01

 Vector  159  Occ=0.000000D+00  E= 3.930499D-01

 Vector  160  Occ=0.000000D+00  E= 3.944486D-01

 Vector  161  Occ=0.000000D+00  E= 3.993136D-01

 Vector  162  Occ=0.000000D+00  E= 4.025534D-01

 Vector  163  Occ=0.000000D+00  E= 4.047203D-01

 Vector  164  Occ=0.000000D+00  E= 4.063998D-01

 Vector  165  Occ=0.000000D+00  E= 4.092574D-01

 Vector  166  Occ=0.000000D+00  E= 4.132815D-01

 Vector  167  Occ=0.000000D+00  E= 4.184117D-01

 Vector  168  Occ=0.000000D+00  E= 4.212833D-01

 Vector  169  Occ=0.000000D+00  E= 4.275054D-01

 Vector  170  Occ=0.000000D+00  E= 4.304252D-01

 Vector  171  Occ=0.000000D+00  E= 4.323258D-01

 Vector  172  Occ=0.000000D+00  E= 4.355050D-01

 Vector  173  Occ=0.000000D+00  E= 4.394937D-01

 Vector  174  Occ=0.000000D+00  E= 4.429582D-01

 Vector  175  Occ=0.000000D+00  E= 4.435018D-01

 Vector  176  Occ=0.000000D+00  E= 4.484670D-01

 Vector  177  Occ=0.000000D+00  E= 4.504643D-01

 Vector  178  Occ=0.000000D+00  E= 4.543261D-01

 Vector  179  Occ=0.000000D+00  E= 4.571615D-01

 Vector  180  Occ=0.000000D+00  E= 4.590035D-01

 Vector  181  Occ=0.000000D+00  E= 4.638115D-01

 Vector  182  Occ=0.000000D+00  E= 4.663712D-01

 Vector  183  Occ=0.000000D+00  E= 4.708496D-01

 Vector  184  Occ=0.000000D+00  E= 4.730721D-01

 Vector  185  Occ=0.000000D+00  E= 4.796229D-01

 Vector  186  Occ=0.000000D+00  E= 4.818685D-01

 Vector  187  Occ=0.000000D+00  E= 4.893680D-01

 Vector  188  Occ=0.000000D+00  E= 4.919992D-01

 Vector  189  Occ=0.000000D+00  E= 4.929424D-01

 Vector  190  Occ=0.000000D+00  E= 4.966134D-01

 Vector  191  Occ=0.000000D+00  E= 5.005367D-01

       Multipole analysis of the density wrt the origin
       ------------------------------------------------

     L   x y z        total         open         nuclear
     -   - - -        -----         ----         -------
     0   0 0 0     -0.000000      0.000000    132.000000

     1   1 0 0      0.178008      0.000000      0.000000
     1   0 1 0      1.184322      0.000000     -0.000000
     1   0 0 1     -1.220271      0.000000     -0.000000

     2   2 0 0    -78.958627      0.000000    667.418960
     2   1 1 0     -9.703112      0.000000    -77.758782
     2   1 0 1     -3.592249      0.000000     -4.220355
     2   0 2 0    -80.334786      0.000000   5192.061057
     2   0 1 1      0.791965      0.000000     -5.708879

 Total times  cpu:     4301.4s     wall:     4388.2s
