 Output coordinates in angstroms (scale by  1.889725989 to convert to a.u.)

  No.       Tag          Charge          X              Y              Z
 ---- ---------------- ---------- -------------- -------------- --------------
    1 H                    1.0000     0.36977049     5.09393002    -1.41751166
    2 C                    6.0000     1.09325436     4.39686702    -1.00119534
    3 H                    1.0000     1.52660700     4.80500720    -0.08975193
    4 H                    1.0000     1.88395997     4.21399337    -1.72878442
    5 C                    6.0000     0.40811905     3.08881346    -0.68533546
    6 O                    8.0000     0.78664245     2.05390939    -1.22148525
    7 N                    7.0000    -0.60186630     3.14275243     0.18459913
    8 H                    1.0000    -0.82213637     4.03737588     0.58859661
    9 C                    6.0000    -1.34404985     1.97461211     0.67178262
   10 H                    1.0000    -1.92027254     2.29186449     1.54181270
   11 C                    6.0000    -2.36153199     1.54065843    -0.40091645
   12 H                    1.0000    -1.84346914     1.18809416    -1.29545170
   13 H                    1.0000    -2.99599399     0.74223768    -0.01536716
   14 H                    1.0000    -2.99551688     2.38607240    -0.67182672
   15 C                    6.0000    -0.39878675     0.86261050     1.18606279
   16 O                    8.0000     0.46828463     1.12997130     2.01483684
   17 N                    7.0000    -0.55614263    -0.37775890     0.71483898
   18 H                    1.0000    -1.28077844    -0.53667385     0.02768981
   19 C                    6.0000     0.30489109    -1.51688337     1.05497334
   20 H                    1.0000     0.59734423    -1.42124572     2.10307143
   21 C                    6.0000    -0.52605029    -2.80386166     0.90814928
   22 H                    1.0000     0.05847628    -3.66083910     1.24181431
   23 H                    1.0000    -1.41530810    -2.73864280     1.53471454
   24 C                    6.0000    -0.96457575    -3.02392289    -0.52618662
   25 O                    8.0000    -2.01302759    -2.56865057    -0.94567898
   26 N                    7.0000    -0.15198147    -3.66462053    -1.33014375
   27 H                    1.0000    -0.44340187    -3.76964998    -2.28370757
   28 H                    1.0000     0.77295687    -3.90679943    -1.00292599
   29 C                    6.0000     1.62507564    -1.58161766     0.24498802
   30 O                    8.0000     2.24902661    -2.63733044     0.16860916
   31 N                    7.0000     2.04564423    -0.51842369    -0.42713893
   32 H                    1.0000     2.89447146    -0.59068188    -0.96123358
   33 H                    1.0000     1.51823231     0.34545937    -0.41041385

         Total SCF energy =   -867.596676875349

 Vector   98  Occ=0.000000D+00  E= 1.716091D-01

 Vector   99  Occ=0.000000D+00  E= 1.764589D-01

 Vector  100  Occ=0.000000D+00  E= 1.780556D-01

 Vector  101  Occ=0.000000D+00  E= 1.821404D-01

 Vector  102  Occ=0.000000D+00  E= 1.834433D-01

 Vector  103  Occ=0.000000D+00  E= 1.870418D-01

 Vector  104  Occ=0.000000D+00  E= 1.916407D-01

 Vector  105  Occ=0.000000D+00  E= 1.943256D-01

 Vector  106  Occ=0.000000D+00  E= 1.943900D-01

 Vector  107  Occ=0.000000D+00  E= 2.000599D-01

 Vector  108  Occ=0.000000D+00  E= 2.013827D-01

 Vector  109  Occ=0.000000D+00  E= 2.045668D-01

 Vector  110  Occ=0.000000D+00  E= 2.087238D-01

 Vector  111  Occ=0.000000D+00  E= 2.117801D-01

 Vector  112  Occ=0.000000D+00  E= 2.142769D-01

 Vector  113  Occ=0.000000D+00  E= 2.180988D-01

 Vector  114  Occ=0.000000D+00  E= 2.277489D-01

 Vector  115  Occ=0.000000D+00  E= 2.361537D-01

 Vector  116  Occ=0.000000D+00  E= 2.376793D-01

 Vector  117  Occ=0.000000D+00  E= 2.408898D-01

 Vector  118  Occ=0.000000D+00  E= 2.444731D-01

 Vector  119  Occ=0.000000D+00  E= 2.461653D-01

 Vector  120  Occ=0.000000D+00  E= 2.563962D-01

 Vector  121  Occ=0.000000D+00  E= 2.674526D-01

 Vector  122  Occ=0.000000D+00  E= 2.686870D-01

 Vector  123  Occ=0.000000D+00  E= 2.738853D-01

 Vector  124  Occ=0.000000D+00  E= 2.784578D-01

 Vector  125  Occ=0.000000D+00  E= 2.813113D-01

 Vector  126  Occ=0.000000D+00  E= 2.895822D-01

 Vector  127  Occ=0.000000D+00  E= 2.924483D-01

 Vector  128  Occ=0.000000D+00  E= 3.029754D-01

 Vector  129  Occ=0.000000D+00  E= 3.133378D-01

 Vector  130  Occ=0.000000D+00  E= 3.159037D-01

 Vector  131  Occ=0.000000D+00  E= 3.164173D-01

 Vector  132  Occ=0.000000D+00  E= 3.241080D-01

 Vector  133  Occ=0.000000D+00  E= 3.253802D-01

 Vector  134  Occ=0.000000D+00  E= 3.274488D-01

 Vector  135  Occ=0.000000D+00  E= 3.354390D-01

 Vector  136  Occ=0.000000D+00  E= 3.385989D-01

 Vector  137  Occ=0.000000D+00  E= 3.412422D-01

 Vector  138  Occ=0.000000D+00  E= 3.432819D-01

 Vector  139  Occ=0.000000D+00  E= 3.467708D-01

 Vector  140  Occ=0.000000D+00  E= 3.514642D-01

 Vector  141  Occ=0.000000D+00  E= 3.588824D-01

 Vector  142  Occ=0.000000D+00  E= 3.609817D-01

 Vector  143  Occ=0.000000D+00  E= 3.633852D-01

 Vector  144  Occ=0.000000D+00  E= 3.643674D-01

 Vector  145  Occ=0.000000D+00  E= 3.776023D-01

 Vector  146  Occ=0.000000D+00  E= 3.803777D-01

 Vector  147  Occ=0.000000D+00  E= 3.831719D-01

 Vector  148  Occ=0.000000D+00  E= 3.869240D-01

 Vector  149  Occ=0.000000D+00  E= 3.904110D-01

 Vector  150  Occ=0.000000D+00  E= 3.926923D-01

 Vector  151  Occ=0.000000D+00  E= 3.957895D-01

 Vector  152  Occ=0.000000D+00  E= 3.982276D-01

 Vector  153  Occ=0.000000D+00  E= 4.029093D-01

 Vector  154  Occ=0.000000D+00  E= 4.064500D-01

 Vector  155  Occ=0.000000D+00  E= 4.090150D-01

 Vector  156  Occ=0.000000D+00  E= 4.108399D-01

 Vector  157  Occ=0.000000D+00  E= 4.138287D-01

 Vector  158  Occ=0.000000D+00  E= 4.186558D-01

 Vector  159  Occ=0.000000D+00  E= 4.276932D-01

 Vector  160  Occ=0.000000D+00  E= 4.305671D-01

 Vector  161  Occ=0.000000D+00  E= 4.334580D-01

 Vector  162  Occ=0.000000D+00  E= 4.348414D-01

 Vector  163  Occ=0.000000D+00  E= 4.465740D-01

 Vector  164  Occ=0.000000D+00  E= 4.507514D-01

 Vector  165  Occ=0.000000D+00  E= 4.528634D-01

 Vector  166  Occ=0.000000D+00  E= 4.554469D-01

 Vector  167  Occ=0.000000D+00  E= 4.579790D-01

 Vector  168  Occ=0.000000D+00  E= 4.600619D-01

 Vector  169  Occ=0.000000D+00  E= 4.742843D-01

 Vector  170  Occ=0.000000D+00  E= 4.781802D-01

 Vector  171  Occ=0.000000D+00  E= 4.799855D-01

 Vector  172  Occ=0.000000D+00  E= 4.848692D-01

 Vector  173  Occ=0.000000D+00  E= 4.887583D-01

 Vector  174  Occ=0.000000D+00  E= 4.922793D-01

 Vector  175  Occ=0.000000D+00  E= 4.966535D-01

 Vector  176  Occ=0.000000D+00  E= 4.986452D-01

 Vector  177  Occ=0.000000D+00  E= 5.028898D-01

       Multipole analysis of the density wrt the origin
       ------------------------------------------------

     L   x y z        total         open         nuclear
     -   - - -        -----         ----         -------
     0   0 0 0     -0.000000      0.000000    130.000000

     1   1 0 0     -0.828555      0.000000     -0.000000
     1   0 1 0      1.777773      0.000000      0.000000
     1   0 0 1     -0.206103      0.000000      0.000000

     2   2 0 0    -80.976303      0.000000    849.990574
     2   1 1 0     -3.252837      0.000000     -2.274688
     2   1 0 1     -7.734186      0.000000    -12.224388
     2   0 2 0    -59.113306      0.000000   2905.986090
     2   0 1 1     -0.902557      0.000000    -19.639455

 Total times  cpu:     4389.9s     wall:     4634.9s
