 Output coordinates in angstroms (scale by  1.889725989 to convert to a.u.)

  No.       Tag          Charge          X              Y              Z
 ---- ---------------- ---------- -------------- -------------- --------------
    1 H                    1.0000    -2.83304859    -2.71891490    -1.07860776
    2 C                    6.0000    -2.61701851    -2.96167460    -0.04076349
    3 H                    1.0000    -2.54754151    -4.04160478     0.08204430
    4 H                    1.0000    -3.41321225    -2.57752562     0.59693400
    5 C                    6.0000    -1.31059152    -2.32688453     0.36971805
    6 O                    8.0000    -1.28147910    -1.51147218     1.28268747
    7 N                    7.0000    -0.23075274    -2.66837614    -0.33261570
    8 H                    1.0000    -0.34845966    -3.33571173    -1.07736418
    9 C                    6.0000     1.14589758    -2.26319381    -0.00932919
   10 H                    1.0000     1.35124011    -2.57118460     1.01712739
   11 C                    6.0000     2.08909651    -3.04627626    -0.93358655
   12 H                    1.0000     1.91676874    -4.11785091    -0.82436703
   13 H                    1.0000     1.92693838    -2.75295357    -1.97187337
   14 H                    1.0000     3.12477959    -2.83147901    -0.66455735
   15 C                    6.0000     1.43735805    -0.74192766    -0.06507949
   16 O                    8.0000     2.54792001    -0.32408598     0.24328307
   17 N                    7.0000     0.45632929     0.08694610    -0.44149930
   18 H                    1.0000    -0.44109376    -0.32839425    -0.63307767
   19 C                    6.0000     0.51576323     1.55807405    -0.34327931
   20 H                    1.0000     1.51073373     1.87721084    -0.65620007
   21 C                    6.0000    -0.50536871     2.17366317    -1.32470358
   22 H                    1.0000    -0.35589668     1.69528400    -2.29393342
   23 C                    6.0000    -1.96351317     1.92974400    -0.90977203
   24 H                    1.0000    -2.18504913     2.44970085     0.02345660
   25 H                    1.0000    -2.63131910     2.30609088    -1.68431981
   26 H                    1.0000    -2.15030529     0.86428081    -0.77842940
   27 C                    6.0000    -0.30176373     3.67728545    -1.53879246
   28 H                    1.0000    -0.53769381     4.23070595    -0.62910089
   29 H                    1.0000     0.73382397     3.87339757    -1.81413433
   30 H                    1.0000    -0.95102706     4.02629014    -2.34175813
   31 C                    6.0000     0.32778836     2.06743914     1.09937888
   32 O                    8.0000     0.65699047     3.20384241     1.41057426
   33 N                    7.0000    -0.18586933     1.25303132     2.01532084
   34 H                    1.0000    -0.46198017     0.31205368     1.76838380
   35 H                    1.0000    -0.27894771     1.59562805     2.95623311

         Total SCF energy =   -777.853097777989

 Vector   98  Occ=0.000000D+00  E= 1.759246D-01

 Vector   99  Occ=0.000000D+00  E= 1.815056D-01

 Vector  100  Occ=0.000000D+00  E= 1.834430D-01

 Vector  101  Occ=0.000000D+00  E= 1.874837D-01

 Vector  102  Occ=0.000000D+00  E= 1.885737D-01

 Vector  103  Occ=0.000000D+00  E= 1.930191D-01

 Vector  104  Occ=0.000000D+00  E= 1.944271D-01

 Vector  105  Occ=0.000000D+00  E= 1.963228D-01

 Vector  106  Occ=0.000000D+00  E= 2.008577D-01

 Vector  107  Occ=0.000000D+00  E= 2.020814D-01

 Vector  108  Occ=0.000000D+00  E= 2.068415D-01

 Vector  109  Occ=0.000000D+00  E= 2.112971D-01

 Vector  110  Occ=0.000000D+00  E= 2.116056D-01

 Vector  111  Occ=0.000000D+00  E= 2.185094D-01

 Vector  112  Occ=0.000000D+00  E= 2.232326D-01

 Vector  113  Occ=0.000000D+00  E= 2.258052D-01

 Vector  114  Occ=0.000000D+00  E= 2.308523D-01

 Vector  115  Occ=0.000000D+00  E= 2.321284D-01

 Vector  116  Occ=0.000000D+00  E= 2.390772D-01

 Vector  117  Occ=0.000000D+00  E= 2.418883D-01

 Vector  118  Occ=0.000000D+00  E= 2.508690D-01

 Vector  119  Occ=0.000000D+00  E= 2.538101D-01

 Vector  120  Occ=0.000000D+00  E= 2.647116D-01

 Vector  121  Occ=0.000000D+00  E= 2.688158D-01

 Vector  122  Occ=0.000000D+00  E= 2.751849D-01

 Vector  123  Occ=0.000000D+00  E= 2.773220D-01

 Vector  124  Occ=0.000000D+00  E= 2.793928D-01

 Vector  125  Occ=0.000000D+00  E= 2.897345D-01

 Vector  126  Occ=0.000000D+00  E= 2.929199D-01

 Vector  127  Occ=0.000000D+00  E= 3.009499D-01

 Vector  128  Occ=0.000000D+00  E= 3.063433D-01

 Vector  129  Occ=0.000000D+00  E= 3.089359D-01

 Vector  130  Occ=0.000000D+00  E= 3.219517D-01

 Vector  131  Occ=0.000000D+00  E= 3.228065D-01

 Vector  132  Occ=0.000000D+00  E= 3.287474D-01

 Vector  133  Occ=0.000000D+00  E= 3.320688D-01

 Vector  134  Occ=0.000000D+00  E= 3.332651D-01

 Vector  135  Occ=0.000000D+00  E= 3.376668D-01

 Vector  136  Occ=0.000000D+00  E= 3.423628D-01

 Vector  137  Occ=0.000000D+00  E= 3.489146D-01

 Vector  138  Occ=0.000000D+00  E= 3.561696D-01

 Vector  139  Occ=0.000000D+00  E= 3.583223D-01

 Vector  140  Occ=0.000000D+00  E= 3.595617D-01

 Vector  141  Occ=0.000000D+00  E= 3.643408D-01

 Vector  142  Occ=0.000000D+00  E= 3.702637D-01

 Vector  143  Occ=0.000000D+00  E= 3.713533D-01

 Vector  144  Occ=0.000000D+00  E= 3.773415D-01

 Vector  145  Occ=0.000000D+00  E= 3.828362D-01

 Vector  146  Occ=0.000000D+00  E= 3.857148D-01

 Vector  147  Occ=0.000000D+00  E= 3.896212D-01

 Vector  148  Occ=0.000000D+00  E= 3.923725D-01

 Vector  149  Occ=0.000000D+00  E= 3.970956D-01

 Vector  150  Occ=0.000000D+00  E= 4.022525D-01

 Vector  151  Occ=0.000000D+00  E= 4.040117D-01

 Vector  152  Occ=0.000000D+00  E= 4.093900D-01

 Vector  153  Occ=0.000000D+00  E= 4.117442D-01

 Vector  154  Occ=0.000000D+00  E= 4.130871D-01

 Vector  155  Occ=0.000000D+00  E= 4.166409D-01

 Vector  156  Occ=0.000000D+00  E= 4.188430D-01

 Vector  157  Occ=0.000000D+00  E= 4.227783D-01

 Vector  158  Occ=0.000000D+00  E= 4.299161D-01

 Vector  159  Occ=0.000000D+00  E= 4.325246D-01

 Vector  160  Occ=0.000000D+00  E= 4.348437D-01

 Vector  161  Occ=0.000000D+00  E= 4.418427D-01

 Vector  162  Occ=0.000000D+00  E= 4.428316D-01

 Vector  163  Occ=0.000000D+00  E= 4.449517D-01

 Vector  164  Occ=0.000000D+00  E= 4.476841D-01

 Vector  165  Occ=0.000000D+00  E= 4.513756D-01

 Vector  166  Occ=0.000000D+00  E= 4.591953D-01

 Vector  167  Occ=0.000000D+00  E= 4.602364D-01

 Vector  168  Occ=0.000000D+00  E= 4.652209D-01

 Vector  169  Occ=0.000000D+00  E= 4.706286D-01

 Vector  170  Occ=0.000000D+00  E= 4.755217D-01

 Vector  171  Occ=0.000000D+00  E= 4.800024D-01

 Vector  172  Occ=0.000000D+00  E= 4.832638D-01

 Vector  173  Occ=0.000000D+00  E= 4.866763D-01

 Vector  174  Occ=0.000000D+00  E= 4.878997D-01

 Vector  175  Occ=0.000000D+00  E= 4.959083D-01

 Vector  176  Occ=0.000000D+00  E= 4.998216D-01

 Vector  177  Occ=0.000000D+00  E= 5.025736D-01

       Multipole analysis of the density wrt the origin
       ------------------------------------------------

     L   x y z        total         open         nuclear
     -   - - -        -----         ----         -------
     0   0 0 0     -0.000000      0.000000    124.000000

     1   1 0 0     -1.823588      0.000000     -0.000000
     1   0 1 0     -3.078388      0.000000     -0.000000
     1   0 0 1     -1.721150      0.000000     -0.000000

     2   2 0 0    -78.159671      0.000000    936.056398
     2   1 1 0     -2.399924      0.000000    -21.653403
     2   1 0 1     -1.022043      0.000000      2.171119
     2   0 2 0    -70.220276      0.000000   2356.816444
     2   0 1 1     -1.354306      0.000000    -18.467229

 Total times  cpu:    10767.4s     wall:    10808.0s
