 Output coordinates in angstroms (scale by  1.889725989 to convert to a.u.)

  No.       Tag          Charge          X              Y              Z
 ---- ---------------- ---------- -------------- -------------- --------------
    1 H                    1.0000    -0.75083989    -5.12630107    -0.18514603
    2 C                    6.0000    -1.15873402    -4.20385267    -0.59308272
    3 H                    1.0000    -2.23584200    -4.17775701    -0.42923395
    4 H                    1.0000    -0.95196460    -4.14625389    -1.66005497
    5 C                    6.0000    -0.52462949    -3.02309068     0.10249946
    6 O                    8.0000    -1.22384166    -2.21407981     0.70565511
    7 N                    7.0000     0.79975905    -2.91701482     0.01743528
    8 H                    1.0000     1.30393944    -3.59589690    -0.52705094
    9 C                    6.0000     1.54786509    -1.79432817     0.57930541
   10 H                    1.0000     1.26464463    -1.68130979     1.62642767
   11 C                    6.0000     3.04590285    -2.12018607     0.52482169
   12 H                    1.0000     3.36323942    -2.25030670    -0.51057009
   13 H                    1.0000     3.61482571    -1.30127210     0.96809778
   14 H                    1.0000     3.24869297    -3.03438526     1.08479223
   15 C                    6.0000     1.21664083    -0.48045419    -0.15687166
   16 O                    8.0000     1.43927057    -0.35953667    -1.36068392
   17 N                    7.0000     0.69564111     0.50670295     0.57541659
   18 H                    1.0000     0.53854011     0.33687949     1.55545397
   19 C                    6.0000     0.24865067     1.80168907     0.04114653
   20 H                    1.0000    -0.20715688     1.63089877    -0.93566929
   21 C                    6.0000    -0.83521978     2.39184319     0.96620704
   22 H                    1.0000    -0.40167279     2.59794334     1.94560774
   23 H                    1.0000    -1.17959988     3.33611396     0.54253021
   24 C                    6.0000    -2.05305132     1.46655865     1.15462377
   25 H                    1.0000    -1.75291233     0.56201676     1.68211457
   26 H                    1.0000    -2.79054878     1.97806525     1.77347794
   27 C                    6.0000    -2.71887289     1.09350611    -0.16695878
   28 O                    8.0000    -3.16510116     1.93324521    -0.92728541
   29 N                    7.0000    -2.80113930    -0.17190255    -0.50852453
   30 H                    1.0000    -3.23843900    -0.36036539    -1.39094151
   31 H                    1.0000    -2.37552611    -0.89557739     0.06180707
   32 C                    6.0000     1.42644233     2.76741505    -0.19844926
   33 O                    8.0000     1.57726504     3.78497332     0.46640462
   34 N                    7.0000     2.31545518     2.43365420    -1.12345134
   35 H                    1.0000     2.19776979     1.56683673    -1.63200381
   36 H                    1.0000     3.09412986     3.04917459    -1.28794265

         Total SCF energy =   -906.636073847746

 Vector  109  Occ=0.000000D+00  E= 1.829042D-01

 Vector  110  Occ=0.000000D+00  E= 1.849026D-01

 Vector  111  Occ=0.000000D+00  E= 1.882724D-01

 Vector  112  Occ=0.000000D+00  E= 1.947633D-01

 Vector  113  Occ=0.000000D+00  E= 1.968690D-01

 Vector  114  Occ=0.000000D+00  E= 2.005316D-01

 Vector  115  Occ=0.000000D+00  E= 2.053331D-01

 Vector  116  Occ=0.000000D+00  E= 2.066823D-01

 Vector  117  Occ=0.000000D+00  E= 2.113890D-01

 Vector  118  Occ=0.000000D+00  E= 2.142254D-01

 Vector  119  Occ=0.000000D+00  E= 2.161404D-01

 Vector  120  Occ=0.000000D+00  E= 2.189860D-01

 Vector  121  Occ=0.000000D+00  E= 2.222815D-01

 Vector  122  Occ=0.000000D+00  E= 2.259766D-01

 Vector  123  Occ=0.000000D+00  E= 2.324884D-01

 Vector  124  Occ=0.000000D+00  E= 2.359952D-01

 Vector  125  Occ=0.000000D+00  E= 2.392534D-01

 Vector  126  Occ=0.000000D+00  E= 2.442462D-01

 Vector  127  Occ=0.000000D+00  E= 2.523933D-01

 Vector  128  Occ=0.000000D+00  E= 2.580628D-01

 Vector  129  Occ=0.000000D+00  E= 2.619457D-01

 Vector  130  Occ=0.000000D+00  E= 2.646308D-01

 Vector  131  Occ=0.000000D+00  E= 2.755989D-01

 Vector  132  Occ=0.000000D+00  E= 2.771455D-01

 Vector  133  Occ=0.000000D+00  E= 2.788890D-01

 Vector  134  Occ=0.000000D+00  E= 2.855783D-01

 Vector  135  Occ=0.000000D+00  E= 2.900812D-01

 Vector  136  Occ=0.000000D+00  E= 2.960030D-01

 Vector  137  Occ=0.000000D+00  E= 3.003551D-01

 Vector  138  Occ=0.000000D+00  E= 3.102538D-01

 Vector  139  Occ=0.000000D+00  E= 3.166372D-01

 Vector  140  Occ=0.000000D+00  E= 3.199210D-01

 Vector  141  Occ=0.000000D+00  E= 3.272542D-01

 Vector  142  Occ=0.000000D+00  E= 3.313324D-01

 Vector  143  Occ=0.000000D+00  E= 3.340468D-01

 Vector  144  Occ=0.000000D+00  E= 3.361132D-01

 Vector  145  Occ=0.000000D+00  E= 3.402049D-01

 Vector  146  Occ=0.000000D+00  E= 3.413457D-01

 Vector  147  Occ=0.000000D+00  E= 3.444436D-01

 Vector  148  Occ=0.000000D+00  E= 3.499854D-01

 Vector  149  Occ=0.000000D+00  E= 3.531450D-01

 Vector  150  Occ=0.000000D+00  E= 3.542175D-01

 Vector  151  Occ=0.000000D+00  E= 3.573841D-01

 Vector  152  Occ=0.000000D+00  E= 3.665378D-01

 Vector  153  Occ=0.000000D+00  E= 3.682996D-01

 Vector  154  Occ=0.000000D+00  E= 3.699038D-01

 Vector  155  Occ=0.000000D+00  E= 3.767151D-01

 Vector  156  Occ=0.000000D+00  E= 3.810805D-01

 Vector  157  Occ=0.000000D+00  E= 3.823224D-01

 Vector  158  Occ=0.000000D+00  E= 3.862276D-01

 Vector  159  Occ=0.000000D+00  E= 3.910038D-01

 Vector  160  Occ=0.000000D+00  E= 3.938219D-01

 Vector  161  Occ=0.000000D+00  E= 3.961979D-01

 Vector  162  Occ=0.000000D+00  E= 4.021795D-01

 Vector  163  Occ=0.000000D+00  E= 4.058999D-01

 Vector  164  Occ=0.000000D+00  E= 4.104991D-01

 Vector  165  Occ=0.000000D+00  E= 4.119839D-01

 Vector  166  Occ=0.000000D+00  E= 4.131243D-01

 Vector  167  Occ=0.000000D+00  E= 4.171362D-01

 Vector  168  Occ=0.000000D+00  E= 4.195501D-01

 Vector  169  Occ=0.000000D+00  E= 4.228881D-01

 Vector  170  Occ=0.000000D+00  E= 4.277118D-01

 Vector  171  Occ=0.000000D+00  E= 4.311982D-01

 Vector  172  Occ=0.000000D+00  E= 4.318749D-01

 Vector  173  Occ=0.000000D+00  E= 4.373988D-01

 Vector  174  Occ=0.000000D+00  E= 4.426587D-01

 Vector  175  Occ=0.000000D+00  E= 4.465512D-01

 Vector  176  Occ=0.000000D+00  E= 4.498588D-01

 Vector  177  Occ=0.000000D+00  E= 4.511168D-01

 Vector  178  Occ=0.000000D+00  E= 4.570998D-01

 Vector  179  Occ=0.000000D+00  E= 4.608897D-01

 Vector  180  Occ=0.000000D+00  E= 4.669437D-01

 Vector  181  Occ=0.000000D+00  E= 4.715376D-01

 Vector  182  Occ=0.000000D+00  E= 4.734938D-01

 Vector  183  Occ=0.000000D+00  E= 4.774473D-01

 Vector  184  Occ=0.000000D+00  E= 4.831727D-01

 Vector  185  Occ=0.000000D+00  E= 4.877272D-01

 Vector  186  Occ=0.000000D+00  E= 4.897391D-01

 Vector  187  Occ=0.000000D+00  E= 4.944701D-01

 Vector  188  Occ=0.000000D+00  E= 5.018412D-01

       Multipole analysis of the density wrt the origin
       ------------------------------------------------

     L   x y z        total         open         nuclear
     -   - - -        -----         ----         -------
     0   0 0 0     -0.000000      0.000000    138.000000

     1   1 0 0      1.547336      0.000000     -0.000000
     1   0 1 0     -3.800550      0.000000     -0.000000
     1   0 0 1      0.609389      0.000000     -0.000000

     2   2 0 0    -83.818716      0.000000   1756.738178
     2   1 1 0      0.701508      0.000000    -13.107488
     2   1 0 1     -3.303788      0.000000     -3.741083
     2   0 2 0    -82.400418      0.000000   2665.339725
     2   0 1 1      2.403423      0.000000     16.908835

 Total times  cpu:     5181.4s     wall:     5303.7s
