 Output coordinates in angstroms (scale by  1.889725989 to convert to a.u.)

  No.       Tag          Charge          X              Y              Z
 ---- ---------------- ---------- -------------- -------------- --------------
    1 H                    1.0000    -1.35745085    -5.57296954     0.25312871
    2 C                    6.0000    -1.80708583    -4.59689542     0.42334825
    3 H                    1.0000    -2.41706994    -4.62709788     1.32489371
    4 H                    1.0000    -2.42672307    -4.31661086    -0.42642540
    5 C                    6.0000    -0.71754561    -3.56662898     0.60456130
    6 O                    8.0000    -0.64044148    -2.92864564     1.64767117
    7 N                    7.0000     0.12972583    -3.40838521    -0.40992725
    8 H                    1.0000    -0.02043574    -3.93931483    -1.24939746
    9 C                    6.0000     1.16530550    -2.37523667    -0.42377817
   10 H                    1.0000     1.71078983    -2.42748769     0.51965475
   11 C                    6.0000     2.14726382    -2.67092408    -1.56362587
   12 H                    1.0000     2.95041766    -1.93230399    -1.55625829
   13 H                    1.0000     2.58054093    -3.66339999    -1.43353158
   14 H                    1.0000     1.62989661    -2.62204101    -2.52330947
   15 C                    6.0000     0.55998571    -0.96243924    -0.54371719
   16 O                    8.0000    -0.41649760    -0.75382544    -1.26390233
   17 N                    7.0000     1.17146264     0.01509614     0.13149578
   18 H                    1.0000     1.99833790    -0.20774207     0.66555704
   19 C                    6.0000     0.73710273     1.41427155     0.16064452
   20 H                    1.0000     0.28630845     1.65617330    -0.80145374
   21 C                    6.0000    -0.30030386     1.62091817     1.28811369
   22 H                    1.0000    -0.17274309     0.85706257     2.05745229
   23 H                    1.0000    -0.14123435     2.58788267     1.76931692
   24 C                    6.0000    -1.74957692     1.58477855     0.77541738
   25 H                    1.0000    -1.94991215     0.61452687     0.32416969
   26 H                    1.0000    -2.42505585     1.70193986     1.62220569
   27 C                    6.0000    -2.05797689     2.68698970    -0.23952599
   28 O                    8.0000    -1.31863376     3.64233973    -0.42520329
   29 N                    7.0000    -3.16286289     2.59834505    -0.94421390
   30 H                    1.0000    -3.31969236     3.33196575    -1.61184117
   31 H                    1.0000    -3.76443647     1.80148603    -0.84863184
   32 C                    6.0000     1.92462856     2.37304576     0.32978765
   33 O                    8.0000     3.01397770     1.97490697     0.73064917
   34 N                    7.0000     1.72325433     3.64965960     0.03129888
   35 H                    1.0000     0.80379236     3.95250034    -0.26620098
   36 H                    1.0000     2.48558864     4.29694039     0.13902532

         Total SCF energy =   -906.640099024447

 Vector  110  Occ=0.000000D+00  E= 1.902586D-01

 Vector  111  Occ=0.000000D+00  E= 1.912432D-01

 Vector  112  Occ=0.000000D+00  E= 1.945629D-01

 Vector  113  Occ=0.000000D+00  E= 1.949321D-01

 Vector  114  Occ=0.000000D+00  E= 2.021513D-01

 Vector  115  Occ=0.000000D+00  E= 2.043995D-01

 Vector  116  Occ=0.000000D+00  E= 2.054808D-01

 Vector  117  Occ=0.000000D+00  E= 2.102061D-01

 Vector  118  Occ=0.000000D+00  E= 2.128759D-01

 Vector  119  Occ=0.000000D+00  E= 2.194255D-01

 Vector  120  Occ=0.000000D+00  E= 2.221084D-01

 Vector  121  Occ=0.000000D+00  E= 2.234206D-01

 Vector  122  Occ=0.000000D+00  E= 2.256257D-01

 Vector  123  Occ=0.000000D+00  E= 2.269392D-01

 Vector  124  Occ=0.000000D+00  E= 2.382223D-01

 Vector  125  Occ=0.000000D+00  E= 2.392976D-01

 Vector  126  Occ=0.000000D+00  E= 2.425441D-01

 Vector  127  Occ=0.000000D+00  E= 2.443859D-01

 Vector  128  Occ=0.000000D+00  E= 2.481088D-01

 Vector  129  Occ=0.000000D+00  E= 2.556874D-01

 Vector  130  Occ=0.000000D+00  E= 2.653751D-01

 Vector  131  Occ=0.000000D+00  E= 2.695329D-01

 Vector  132  Occ=0.000000D+00  E= 2.722221D-01

 Vector  133  Occ=0.000000D+00  E= 2.765620D-01

 Vector  134  Occ=0.000000D+00  E= 2.820777D-01

 Vector  135  Occ=0.000000D+00  E= 2.922644D-01

 Vector  136  Occ=0.000000D+00  E= 2.986102D-01

 Vector  137  Occ=0.000000D+00  E= 3.006688D-01

 Vector  138  Occ=0.000000D+00  E= 3.039102D-01

 Vector  139  Occ=0.000000D+00  E= 3.140396D-01

 Vector  140  Occ=0.000000D+00  E= 3.198552D-01

 Vector  141  Occ=0.000000D+00  E= 3.218570D-01

 Vector  142  Occ=0.000000D+00  E= 3.239076D-01

 Vector  143  Occ=0.000000D+00  E= 3.291590D-01

 Vector  144  Occ=0.000000D+00  E= 3.335161D-01

 Vector  145  Occ=0.000000D+00  E= 3.402281D-01

 Vector  146  Occ=0.000000D+00  E= 3.431100D-01

 Vector  147  Occ=0.000000D+00  E= 3.436714D-01

 Vector  148  Occ=0.000000D+00  E= 3.499090D-01

 Vector  149  Occ=0.000000D+00  E= 3.531874D-01

 Vector  150  Occ=0.000000D+00  E= 3.539847D-01

 Vector  151  Occ=0.000000D+00  E= 3.567310D-01

 Vector  152  Occ=0.000000D+00  E= 3.650985D-01

 Vector  153  Occ=0.000000D+00  E= 3.690501D-01

 Vector  154  Occ=0.000000D+00  E= 3.714509D-01

 Vector  155  Occ=0.000000D+00  E= 3.770917D-01

 Vector  156  Occ=0.000000D+00  E= 3.804259D-01

 Vector  157  Occ=0.000000D+00  E= 3.836065D-01

 Vector  158  Occ=0.000000D+00  E= 3.839373D-01

 Vector  159  Occ=0.000000D+00  E= 3.880908D-01

 Vector  160  Occ=0.000000D+00  E= 3.946190D-01

 Vector  161  Occ=0.000000D+00  E= 3.980869D-01

 Vector  162  Occ=0.000000D+00  E= 4.000426D-01

 Vector  163  Occ=0.000000D+00  E= 4.020285D-01

 Vector  164  Occ=0.000000D+00  E= 4.056170D-01

 Vector  165  Occ=0.000000D+00  E= 4.104595D-01

 Vector  166  Occ=0.000000D+00  E= 4.128698D-01

 Vector  167  Occ=0.000000D+00  E= 4.195110D-01

 Vector  168  Occ=0.000000D+00  E= 4.213685D-01

 Vector  169  Occ=0.000000D+00  E= 4.247823D-01

 Vector  170  Occ=0.000000D+00  E= 4.274152D-01

 Vector  171  Occ=0.000000D+00  E= 4.314087D-01

 Vector  172  Occ=0.000000D+00  E= 4.382632D-01

 Vector  173  Occ=0.000000D+00  E= 4.414837D-01

 Vector  174  Occ=0.000000D+00  E= 4.424540D-01

 Vector  175  Occ=0.000000D+00  E= 4.477475D-01

 Vector  176  Occ=0.000000D+00  E= 4.505687D-01

 Vector  177  Occ=0.000000D+00  E= 4.538276D-01

 Vector  178  Occ=0.000000D+00  E= 4.584177D-01

 Vector  179  Occ=0.000000D+00  E= 4.601426D-01

 Vector  180  Occ=0.000000D+00  E= 4.673298D-01

 Vector  181  Occ=0.000000D+00  E= 4.718187D-01

 Vector  182  Occ=0.000000D+00  E= 4.783981D-01

 Vector  183  Occ=0.000000D+00  E= 4.811896D-01

 Vector  184  Occ=0.000000D+00  E= 4.840120D-01

 Vector  185  Occ=0.000000D+00  E= 4.849701D-01

 Vector  186  Occ=0.000000D+00  E= 4.893240D-01

 Vector  187  Occ=0.000000D+00  E= 4.944875D-01

 Vector  188  Occ=0.000000D+00  E= 4.956257D-01

 Vector  189  Occ=0.000000D+00  E= 5.028558D-01

       Multipole analysis of the density wrt the origin
       ------------------------------------------------

     L   x y z        total         open         nuclear
     -   - - -        -----         ----         -------
     0   0 0 0      0.000000      0.000000    138.000000

     1   1 0 0     -1.304954      0.000000      0.000000
     1   0 1 0     -0.841165      0.000000      0.000000
     1   0 0 1     -1.053785      0.000000     -0.000000

     2   2 0 0    -75.037074      0.000000   1436.692039
     2   1 1 0     -5.677202      0.000000     -6.911684
     2   1 0 1     -0.973412      0.000000    -16.589845
     2   0 2 0    -68.341034      0.000000   3628.385947
     2   0 1 1      5.495602      0.000000     23.679413

 Total times  cpu:     4941.7s     wall:     5020.9s
