 Output coordinates in angstroms (scale by  1.889725989 to convert to a.u.)

  No.       Tag          Charge          X              Y              Z
 ---- ---------------- ---------- -------------- -------------- --------------
    1 H                    1.0000     3.38915438     2.55496106    -0.96597092
    2 C                    6.0000     2.31816051     2.36379103    -0.94844551
    3 H                    1.0000     1.84922410     2.83333747    -1.81118231
    4 H                    1.0000     1.88474262     2.76447075    -0.03331454
    5 C                    6.0000     2.07422032     0.87583366    -1.00791863
    6 O                    8.0000     1.45030833     0.38511055    -1.94070513
    7 N                    7.0000     2.56819230     0.15092299    -0.00641466
    8 H                    1.0000     3.04660078     0.63904247     0.73230497
    9 C                    6.0000     2.49602662    -1.31236778     0.09296460
   10 H                    1.0000     2.70224279    -1.72297392    -0.89704525
   11 C                    6.0000     3.62174086    -1.77841719     1.03042520
   12 H                    1.0000     4.58344566    -1.41394759     0.66989811
   13 H                    1.0000     3.44532304    -1.40536309     2.04040758
   14 H                    1.0000     3.64741497    -2.86892130     1.05787756
   15 C                    6.0000     1.09738290    -1.84183181     0.50051533
   16 O                    8.0000     0.97325947    -2.66716796     1.40303548
   17 N                    7.0000     0.03406532    -1.35390381    -0.14382929
   18 H                    1.0000     0.21630484    -0.68772608    -0.88785617
   19 C                    6.0000    -1.37515076    -1.62228247     0.18467934
   20 H                    1.0000    -1.46727448    -1.58393116     1.26988504
   21 C                    6.0000    -2.24925754    -0.49402096    -0.39203922
   22 H                    1.0000    -2.28807360    -0.60900390    -1.47663834
   23 H                    1.0000    -3.26621988    -0.61176724    -0.01601340
   24 C                    6.0000    -1.78622811     0.91577101    -0.06128199
   25 C                    6.0000    -1.44404969     1.80780630    -1.09678427
   26 H                    1.0000    -1.49872462     1.48458976    -2.12836205
   27 C                    6.0000    -1.02532448     3.11783636    -0.79587158
   28 H                    1.0000    -0.76566559     3.79550915    -1.59403814
   29 C                    6.0000    -0.93433321     3.53405785     0.54955521
   30 O                    8.0000    -0.51529709     4.79133264     0.84879898
   31 H                    1.0000    -0.49819488     5.35676945     0.07677324
   32 C                    6.0000    -1.26684821     2.64028668     1.58720345
   33 H                    1.0000    -1.19729533     2.97084902     2.61224780
   34 C                    6.0000    -1.69961163     1.33511568     1.28167357
   35 H                    1.0000    -1.96795643     0.65648827     2.07903791
   36 C                    6.0000    -1.87832399    -3.02608187    -0.23213348
   37 O                    8.0000    -2.99490595    -3.19208496    -0.70705843
   38 N                    7.0000    -1.06623589    -4.06506357    -0.09238036
   39 H                    1.0000    -0.16885507    -3.93312777     0.35323115
   40 H                    1.0000    -1.39568506    -4.97344584    -0.37069114

         Total SCF energy =  -1004.217848110999

 Vector  134  Occ=0.000000D+00  E= 2.195659D-01

 Vector  135  Occ=0.000000D+00  E= 2.222062D-01

 Vector  136  Occ=0.000000D+00  E= 2.232317D-01

 Vector  137  Occ=0.000000D+00  E= 2.271825D-01

 Vector  138  Occ=0.000000D+00  E= 2.280789D-01

 Vector  139  Occ=0.000000D+00  E= 2.341606D-01

 Vector  140  Occ=0.000000D+00  E= 2.359975D-01

 Vector  141  Occ=0.000000D+00  E= 2.416275D-01

 Vector  142  Occ=0.000000D+00  E= 2.442106D-01

 Vector  143  Occ=0.000000D+00  E= 2.500724D-01

 Vector  144  Occ=0.000000D+00  E= 2.562980D-01

 Vector  145  Occ=0.000000D+00  E= 2.593108D-01

 Vector  146  Occ=0.000000D+00  E= 2.622053D-01

 Vector  147  Occ=0.000000D+00  E= 2.711140D-01

 Vector  148  Occ=0.000000D+00  E= 2.718305D-01

 Vector  149  Occ=0.000000D+00  E= 2.801866D-01

 Vector  150  Occ=0.000000D+00  E= 2.826738D-01

 Vector  151  Occ=0.000000D+00  E= 2.910356D-01

 Vector  152  Occ=0.000000D+00  E= 2.943488D-01

 Vector  153  Occ=0.000000D+00  E= 2.982176D-01

 Vector  154  Occ=0.000000D+00  E= 3.021093D-01

 Vector  155  Occ=0.000000D+00  E= 3.049115D-01

 Vector  156  Occ=0.000000D+00  E= 3.138042D-01

 Vector  157  Occ=0.000000D+00  E= 3.179325D-01

 Vector  158  Occ=0.000000D+00  E= 3.207738D-01

 Vector  159  Occ=0.000000D+00  E= 3.242215D-01

 Vector  160  Occ=0.000000D+00  E= 3.262507D-01

 Vector  161  Occ=0.000000D+00  E= 3.284634D-01

 Vector  162  Occ=0.000000D+00  E= 3.308488D-01

 Vector  163  Occ=0.000000D+00  E= 3.319982D-01

 Vector  164  Occ=0.000000D+00  E= 3.400492D-01

 Vector  165  Occ=0.000000D+00  E= 3.412219D-01

 Vector  166  Occ=0.000000D+00  E= 3.430466D-01

 Vector  167  Occ=0.000000D+00  E= 3.478953D-01

 Vector  168  Occ=0.000000D+00  E= 3.494631D-01

 Vector  169  Occ=0.000000D+00  E= 3.548797D-01

 Vector  170  Occ=0.000000D+00  E= 3.586954D-01

 Vector  171  Occ=0.000000D+00  E= 3.630943D-01

 Vector  172  Occ=0.000000D+00  E= 3.656862D-01

 Vector  173  Occ=0.000000D+00  E= 3.685771D-01

 Vector  174  Occ=0.000000D+00  E= 3.691548D-01

 Vector  175  Occ=0.000000D+00  E= 3.711088D-01

 Vector  176  Occ=0.000000D+00  E= 3.768532D-01

 Vector  177  Occ=0.000000D+00  E= 3.812524D-01

 Vector  178  Occ=0.000000D+00  E= 3.825164D-01

 Vector  179  Occ=0.000000D+00  E= 3.877908D-01

 Vector  180  Occ=0.000000D+00  E= 3.927728D-01

 Vector  181  Occ=0.000000D+00  E= 3.961727D-01

 Vector  182  Occ=0.000000D+00  E= 3.974344D-01

 Vector  183  Occ=0.000000D+00  E= 4.001750D-01

 Vector  184  Occ=0.000000D+00  E= 4.015923D-01

 Vector  185  Occ=0.000000D+00  E= 4.075989D-01

 Vector  186  Occ=0.000000D+00  E= 4.095751D-01

 Vector  187  Occ=0.000000D+00  E= 4.120531D-01

 Vector  188  Occ=0.000000D+00  E= 4.134904D-01

 Vector  189  Occ=0.000000D+00  E= 4.187915D-01

 Vector  190  Occ=0.000000D+00  E= 4.216502D-01

 Vector  191  Occ=0.000000D+00  E= 4.282948D-01

 Vector  192  Occ=0.000000D+00  E= 4.294373D-01

 Vector  193  Occ=0.000000D+00  E= 4.305362D-01

 Vector  194  Occ=0.000000D+00  E= 4.372898D-01

 Vector  195  Occ=0.000000D+00  E= 4.405086D-01

 Vector  196  Occ=0.000000D+00  E= 4.424937D-01

 Vector  197  Occ=0.000000D+00  E= 4.434794D-01

 Vector  198  Occ=0.000000D+00  E= 4.481648D-01

 Vector  199  Occ=0.000000D+00  E= 4.522806D-01

 Vector  200  Occ=0.000000D+00  E= 4.541002D-01

 Vector  201  Occ=0.000000D+00  E= 4.610088D-01

 Vector  202  Occ=0.000000D+00  E= 4.648374D-01

 Vector  203  Occ=0.000000D+00  E= 4.674589D-01

 Vector  204  Occ=0.000000D+00  E= 4.710278D-01

 Vector  205  Occ=0.000000D+00  E= 4.757850D-01

 Vector  206  Occ=0.000000D+00  E= 4.784478D-01

 Vector  207  Occ=0.000000D+00  E= 4.804493D-01

 Vector  208  Occ=0.000000D+00  E= 4.817605D-01

 Vector  209  Occ=0.000000D+00  E= 4.898290D-01

 Vector  210  Occ=0.000000D+00  E= 4.915905D-01

 Vector  211  Occ=0.000000D+00  E= 4.937220D-01

 Vector  212  Occ=0.000000D+00  E= 4.994048D-01

 Vector  213  Occ=0.000000D+00  E= 5.020474D-01

       Multipole analysis of the density wrt the origin
       ------------------------------------------------

     L   x y z        total         open         nuclear
     -   - - -        -----         ----         -------
     0   0 0 0      0.000000      0.000000    156.000000

     1   1 0 0      2.271689      0.000000     -0.000000
     1   0 1 0      1.643413      0.000000      0.000000
     1   0 0 1      0.192783      0.000000     -0.000000

     2   2 0 0    -94.649537      0.000000   2058.751502
     2   1 1 0     -5.220260      0.000000     -8.395031
     2   1 0 1     -1.601763      0.000000     10.792032
     2   0 2 0    -89.052653      0.000000   3423.293973
     2   0 1 1     -4.394229      0.000000    -21.653955

 Total times  cpu:    21860.8s     wall:    21972.7s
