 Output coordinates in angstroms (scale by  1.889725989 to convert to a.u.)

  No.       Tag          Charge          X              Y              Z
 ---- ---------------- ---------- -------------- -------------- --------------
    1 H                    1.0000    -1.05551312     5.26223314    -1.42782712
    2 C                    6.0000    -0.52419609     5.44128090    -0.49509559
    3 H                    1.0000    -1.23295554     5.61656532     0.31131834
    4 H                    1.0000     0.12597809     6.30847063    -0.60473377
    5 C                    6.0000     0.32330350     4.23573657    -0.16205759
    6 O                    8.0000     1.53715034     4.34696201    -0.05893271
    7 N                    7.0000    -0.32124177     3.08200990    -0.00078711
    8 H                    1.0000    -1.32050790     3.06496968    -0.13750156
    9 C                    6.0000     0.32308532     1.80297210     0.29971403
   10 H                    1.0000     1.30011207     1.77570104    -0.18637240
   11 C                    6.0000     0.53254631     1.69383071     1.81800657
   12 H                    1.0000    -0.42977988     1.71833417     2.33177392
   13 H                    1.0000     1.04408413     0.76045645     2.05701191
   14 H                    1.0000     1.14670475     2.52500551     2.16564270
   15 C                    6.0000    -0.50900787     0.62419535    -0.23921852
   16 O                    8.0000    -1.70247406     0.76548447    -0.50630993
   17 N                    7.0000     0.11030049    -0.55193107    -0.36866658
   18 H                    1.0000     1.08955217    -0.59939005    -0.10963993
   19 C                    6.0000    -0.48923796    -1.78949461    -0.89316266
   20 H                    1.0000    -1.07004344    -1.52753098    -1.77910907
   21 C                    6.0000     0.65690650    -2.71634083    -1.34040640
   22 H                    1.0000     0.25335387    -3.64701783    -1.73852523
   23 H                    1.0000     1.22296417    -2.23238583    -2.13611569
   24 C                    6.0000     1.61574802    -3.02496853    -0.20538927
   25 O                    8.0000     2.57020871    -2.30588607     0.02812987
   26 N                    7.0000     1.35586886    -4.04709979     0.57072316
   27 H                    1.0000     1.98716154    -4.21683460     1.33127864
   28 H                    1.0000     0.46683100    -4.51982237     0.47105340
   29 C                    6.0000    -1.48491179    -2.48662478     0.07214411
   30 O                    8.0000    -1.48648455    -3.70725180     0.21068362
   31 N                    7.0000    -2.32103774    -1.74318361     0.78357550
   32 H                    1.0000    -2.95993555    -2.20105280     1.41288814
   33 H                    1.0000    -2.34785454    -0.74425962     0.62916786

         Total SCF energy =   -867.599977484343

 Vector   99  Occ=0.000000D+00  E= 1.736972D-01

 Vector  100  Occ=0.000000D+00  E= 1.757855D-01

 Vector  101  Occ=0.000000D+00  E= 1.778456D-01

 Vector  102  Occ=0.000000D+00  E= 1.813334D-01

 Vector  103  Occ=0.000000D+00  E= 1.831262D-01

 Vector  104  Occ=0.000000D+00  E= 1.837197D-01

 Vector  105  Occ=0.000000D+00  E= 1.887212D-01

 Vector  106  Occ=0.000000D+00  E= 1.910741D-01

 Vector  107  Occ=0.000000D+00  E= 1.969637D-01

 Vector  108  Occ=0.000000D+00  E= 1.985268D-01

 Vector  109  Occ=0.000000D+00  E= 2.025063D-01

 Vector  110  Occ=0.000000D+00  E= 2.065896D-01

 Vector  111  Occ=0.000000D+00  E= 2.113763D-01

 Vector  112  Occ=0.000000D+00  E= 2.128455D-01

 Vector  113  Occ=0.000000D+00  E= 2.184655D-01

 Vector  114  Occ=0.000000D+00  E= 2.214411D-01

 Vector  115  Occ=0.000000D+00  E= 2.310092D-01

 Vector  116  Occ=0.000000D+00  E= 2.318361D-01

 Vector  117  Occ=0.000000D+00  E= 2.382853D-01

 Vector  118  Occ=0.000000D+00  E= 2.388861D-01

 Vector  119  Occ=0.000000D+00  E= 2.438834D-01

 Vector  120  Occ=0.000000D+00  E= 2.508041D-01

 Vector  121  Occ=0.000000D+00  E= 2.570366D-01

 Vector  122  Occ=0.000000D+00  E= 2.614166D-01

 Vector  123  Occ=0.000000D+00  E= 2.627738D-01

 Vector  124  Occ=0.000000D+00  E= 2.674877D-01

 Vector  125  Occ=0.000000D+00  E= 2.717453D-01

 Vector  126  Occ=0.000000D+00  E= 2.812535D-01

 Vector  127  Occ=0.000000D+00  E= 2.898536D-01

 Vector  128  Occ=0.000000D+00  E= 2.949706D-01

 Vector  129  Occ=0.000000D+00  E= 2.977782D-01

 Vector  130  Occ=0.000000D+00  E= 3.042039D-01

 Vector  131  Occ=0.000000D+00  E= 3.115122D-01

 Vector  132  Occ=0.000000D+00  E= 3.160055D-01

 Vector  133  Occ=0.000000D+00  E= 3.190214D-01

 Vector  134  Occ=0.000000D+00  E= 3.206351D-01

 Vector  135  Occ=0.000000D+00  E= 3.259253D-01

 Vector  136  Occ=0.000000D+00  E= 3.320180D-01

 Vector  137  Occ=0.000000D+00  E= 3.349990D-01

 Vector  138  Occ=0.000000D+00  E= 3.379905D-01

 Vector  139  Occ=0.000000D+00  E= 3.414020D-01

 Vector  140  Occ=0.000000D+00  E= 3.466943D-01

 Vector  141  Occ=0.000000D+00  E= 3.493341D-01

 Vector  142  Occ=0.000000D+00  E= 3.534597D-01

 Vector  143  Occ=0.000000D+00  E= 3.590068D-01

 Vector  144  Occ=0.000000D+00  E= 3.614938D-01

 Vector  145  Occ=0.000000D+00  E= 3.661432D-01

 Vector  146  Occ=0.000000D+00  E= 3.694938D-01

 Vector  147  Occ=0.000000D+00  E= 3.716242D-01

 Vector  148  Occ=0.000000D+00  E= 3.741422D-01

 Vector  149  Occ=0.000000D+00  E= 3.799429D-01

 Vector  150  Occ=0.000000D+00  E= 3.831965D-01

 Vector  151  Occ=0.000000D+00  E= 3.861379D-01

 Vector  152  Occ=0.000000D+00  E= 3.900177D-01

 Vector  153  Occ=0.000000D+00  E= 3.923977D-01

 Vector  154  Occ=0.000000D+00  E= 3.999067D-01

 Vector  155  Occ=0.000000D+00  E= 4.030603D-01

 Vector  156  Occ=0.000000D+00  E= 4.081939D-01

 Vector  157  Occ=0.000000D+00  E= 4.133683D-01

 Vector  158  Occ=0.000000D+00  E= 4.166155D-01

 Vector  159  Occ=0.000000D+00  E= 4.202004D-01

 Vector  160  Occ=0.000000D+00  E= 4.258441D-01

 Vector  161  Occ=0.000000D+00  E= 4.281120D-01

 Vector  162  Occ=0.000000D+00  E= 4.311765D-01

 Vector  163  Occ=0.000000D+00  E= 4.366971D-01

 Vector  164  Occ=0.000000D+00  E= 4.419034D-01

 Vector  165  Occ=0.000000D+00  E= 4.454599D-01

 Vector  166  Occ=0.000000D+00  E= 4.465980D-01

 Vector  167  Occ=0.000000D+00  E= 4.494645D-01

 Vector  168  Occ=0.000000D+00  E= 4.532458D-01

 Vector  169  Occ=0.000000D+00  E= 4.587385D-01

 Vector  170  Occ=0.000000D+00  E= 4.645029D-01

 Vector  171  Occ=0.000000D+00  E= 4.699132D-01

 Vector  172  Occ=0.000000D+00  E= 4.704727D-01

 Vector  173  Occ=0.000000D+00  E= 4.796894D-01

 Vector  174  Occ=0.000000D+00  E= 4.808099D-01

 Vector  175  Occ=0.000000D+00  E= 4.869816D-01

 Vector  176  Occ=0.000000D+00  E= 4.903763D-01

 Vector  177  Occ=0.000000D+00  E= 4.956971D-01

 Vector  178  Occ=0.000000D+00  E= 5.011581D-01

       Multipole analysis of the density wrt the origin
       ------------------------------------------------

     L   x y z        total         open         nuclear
     -   - - -        -----         ----         -------
     0   0 0 0     -0.000000      0.000000    130.000000

     1   1 0 0     -1.548567      0.000000     -0.000000
     1   0 1 0     -0.469761      0.000000      0.000000
     1   0 0 1      0.218584      0.000000      0.000000

     2   2 0 0    -86.429993      0.000000    835.932845
     2   1 1 0    -11.632152      0.000000    -27.267735
     2   1 0 1     -2.054588      0.000000      0.957030
     2   0 2 0    -78.521411      0.000000   4209.577051
     2   0 1 1     -0.218557      0.000000      5.950228

 Total times  cpu:     3377.3s     wall:     3470.6s
