 Output coordinates in angstroms (scale by  1.889725989 to convert to a.u.)

  No.       Tag          Charge          X              Y              Z
 ---- ---------------- ---------- -------------- -------------- --------------
    1 H                    1.0000    -1.58031579    -4.99280764     0.25520403
    2 C                    6.0000    -1.75353364    -4.14230388    -0.40091329
    3 H                    1.0000    -2.81636628    -3.90193161    -0.41480393
    4 H                    1.0000    -1.42119778    -4.37682009    -1.41149234
    5 C                    6.0000    -0.98643875    -2.94699670     0.11081336
    6 O                    8.0000    -1.57949756    -1.91844340     0.42008246
    7 N                    7.0000     0.33634129    -3.07876257     0.20039416
    8 H                    1.0000     0.75761511    -3.93711307    -0.11026288
    9 C                    6.0000     1.21946401    -1.98345057     0.60023021
   10 H                    1.0000     0.89993558    -1.62617876     1.58070888
   11 C                    6.0000     2.65197319    -2.51553435     0.72868373
   12 H                    1.0000     2.68480887    -3.32399167     1.46043136
   13 H                    1.0000     3.00059738    -2.88413025    -0.23782350
   14 H                    1.0000     3.31192704    -1.71329318     1.05977290
   15 C                    6.0000     1.12753384    -0.80857247    -0.39349577
   16 O                    8.0000     1.24842136    -0.99744734    -1.60225773
   17 N                    7.0000     0.89761498     0.39998463     0.12123139
   18 H                    1.0000     0.85894534     0.50830116     1.12461427
   19 C                    6.0000     0.64902300     1.60844212    -0.66682858
   20 H                    1.0000     1.28537909     1.58688035    -1.55252323
   21 C                    6.0000    -0.82513912     1.60554446    -1.12525921
   22 H                    1.0000    -0.96941716     2.38719074    -1.87011285
   23 H                    1.0000    -1.06435672     0.65371546    -1.60004073
   24 C                    6.0000    -1.80655589     1.86130748     0.00392651
   25 O                    8.0000    -2.15195578     2.99202718     0.29008536
   26 N                    7.0000    -2.28754010     0.84459715     0.67896599
   27 H                    1.0000    -2.93204860     1.06353968     1.41423666
   28 H                    1.0000    -2.01628210    -0.11163552     0.46532097
   29 C                    6.0000     1.01890169     2.86971300     0.14316989
   30 O                    8.0000     1.38357002     2.78475997     1.31195943
   31 N                    7.0000     0.94734398     4.04903600    -0.45871529
   32 H                    1.0000     1.15813023     4.86900987     0.08592955
   33 H                    1.0000     0.61065039     4.11921224    -1.40321025

         Total SCF energy =   -867.596380235414

 Vector   98  Occ=0.000000D+00  E= 1.689219D-01

 Vector   99  Occ=0.000000D+00  E= 1.714279D-01

 Vector  100  Occ=0.000000D+00  E= 1.747604D-01

 Vector  101  Occ=0.000000D+00  E= 1.802946D-01

 Vector  102  Occ=0.000000D+00  E= 1.819813D-01

 Vector  103  Occ=0.000000D+00  E= 1.838434D-01

 Vector  104  Occ=0.000000D+00  E= 1.891300D-01

 Vector  105  Occ=0.000000D+00  E= 1.924156D-01

 Vector  106  Occ=0.000000D+00  E= 1.938774D-01

 Vector  107  Occ=0.000000D+00  E= 2.000031D-01

 Vector  108  Occ=0.000000D+00  E= 2.040879D-01

 Vector  109  Occ=0.000000D+00  E= 2.058856D-01

 Vector  110  Occ=0.000000D+00  E= 2.084304D-01

 Vector  111  Occ=0.000000D+00  E= 2.109684D-01

 Vector  112  Occ=0.000000D+00  E= 2.169953D-01

 Vector  113  Occ=0.000000D+00  E= 2.205505D-01

 Vector  114  Occ=0.000000D+00  E= 2.241072D-01

 Vector  115  Occ=0.000000D+00  E= 2.307338D-01

 Vector  116  Occ=0.000000D+00  E= 2.382695D-01

 Vector  117  Occ=0.000000D+00  E= 2.408311D-01

 Vector  118  Occ=0.000000D+00  E= 2.434681D-01

 Vector  119  Occ=0.000000D+00  E= 2.511923D-01

 Vector  120  Occ=0.000000D+00  E= 2.532663D-01

 Vector  121  Occ=0.000000D+00  E= 2.597031D-01

 Vector  122  Occ=0.000000D+00  E= 2.688765D-01

 Vector  123  Occ=0.000000D+00  E= 2.728636D-01

 Vector  124  Occ=0.000000D+00  E= 2.789261D-01

 Vector  125  Occ=0.000000D+00  E= 2.820613D-01

 Vector  126  Occ=0.000000D+00  E= 2.874441D-01

 Vector  127  Occ=0.000000D+00  E= 2.951843D-01

 Vector  128  Occ=0.000000D+00  E= 3.005693D-01

 Vector  129  Occ=0.000000D+00  E= 3.027373D-01

 Vector  130  Occ=0.000000D+00  E= 3.180740D-01

 Vector  131  Occ=0.000000D+00  E= 3.218100D-01

 Vector  132  Occ=0.000000D+00  E= 3.239900D-01

 Vector  133  Occ=0.000000D+00  E= 3.301326D-01

 Vector  134  Occ=0.000000D+00  E= 3.353320D-01

 Vector  135  Occ=0.000000D+00  E= 3.382023D-01

 Vector  136  Occ=0.000000D+00  E= 3.420112D-01

 Vector  137  Occ=0.000000D+00  E= 3.449899D-01

 Vector  138  Occ=0.000000D+00  E= 3.526013D-01

 Vector  139  Occ=0.000000D+00  E= 3.574015D-01

 Vector  140  Occ=0.000000D+00  E= 3.592889D-01

 Vector  141  Occ=0.000000D+00  E= 3.604691D-01

 Vector  142  Occ=0.000000D+00  E= 3.623325D-01

 Vector  143  Occ=0.000000D+00  E= 3.635713D-01

 Vector  144  Occ=0.000000D+00  E= 3.726933D-01

 Vector  145  Occ=0.000000D+00  E= 3.762977D-01

 Vector  146  Occ=0.000000D+00  E= 3.774300D-01

 Vector  147  Occ=0.000000D+00  E= 3.801088D-01

 Vector  148  Occ=0.000000D+00  E= 3.848182D-01

 Vector  149  Occ=0.000000D+00  E= 3.891732D-01

 Vector  150  Occ=0.000000D+00  E= 3.917820D-01

 Vector  151  Occ=0.000000D+00  E= 3.957614D-01

 Vector  152  Occ=0.000000D+00  E= 3.971616D-01

 Vector  153  Occ=0.000000D+00  E= 4.028466D-01

 Vector  154  Occ=0.000000D+00  E= 4.059440D-01

 Vector  155  Occ=0.000000D+00  E= 4.082557D-01

 Vector  156  Occ=0.000000D+00  E= 4.132946D-01

 Vector  157  Occ=0.000000D+00  E= 4.166487D-01

 Vector  158  Occ=0.000000D+00  E= 4.184051D-01

 Vector  159  Occ=0.000000D+00  E= 4.230169D-01

 Vector  160  Occ=0.000000D+00  E= 4.273351D-01

 Vector  161  Occ=0.000000D+00  E= 4.318780D-01

 Vector  162  Occ=0.000000D+00  E= 4.348768D-01

 Vector  163  Occ=0.000000D+00  E= 4.423984D-01

 Vector  164  Occ=0.000000D+00  E= 4.463976D-01

 Vector  165  Occ=0.000000D+00  E= 4.505256D-01

 Vector  166  Occ=0.000000D+00  E= 4.561031D-01

 Vector  167  Occ=0.000000D+00  E= 4.585167D-01

 Vector  168  Occ=0.000000D+00  E= 4.619500D-01

 Vector  169  Occ=0.000000D+00  E= 4.671717D-01

 Vector  170  Occ=0.000000D+00  E= 4.709279D-01

 Vector  171  Occ=0.000000D+00  E= 4.800091D-01

 Vector  172  Occ=0.000000D+00  E= 4.874688D-01

 Vector  173  Occ=0.000000D+00  E= 4.886298D-01

 Vector  174  Occ=0.000000D+00  E= 4.929654D-01

 Vector  175  Occ=0.000000D+00  E= 4.962260D-01

 Vector  176  Occ=0.000000D+00  E= 4.976937D-01

 Vector  177  Occ=0.000000D+00  E= 5.002614D-01

       Multipole analysis of the density wrt the origin
       ------------------------------------------------

     L   x y z        total         open         nuclear
     -   - - -        -----         ----         -------
     0   0 0 0      0.000000      0.000000    130.000000

     1   1 0 0      0.729834      0.000000     -0.000000
     1   0 1 0     -2.164215      0.000000      0.000000
     1   0 0 1     -0.488409      0.000000      0.000000

     2   2 0 0    -79.315180      0.000000   1105.045741
     2   1 1 0      5.821841      0.000000      3.608262
     2   1 0 1      1.747717      0.000000     13.217860
     2   0 2 0    -60.215030      0.000000   2965.801100
     2   0 1 1    -11.581743      0.000000    -22.716049

 Total times  cpu:     4006.5s     wall:     4265.2s
