 Output coordinates in angstroms (scale by  1.889725989 to convert to a.u.)

  No.       Tag          Charge          X              Y              Z
 ---- ---------------- ---------- -------------- -------------- --------------
    1 H                    1.0000     1.30339680     6.06800127     0.55072473
    2 C                    6.0000     1.40454011     5.17230535    -0.06202468
    3 H                    1.0000     2.38710884     4.73185007     0.09510849
    4 H                    1.0000     1.27495907     5.43094318    -1.11106053
    5 C                    6.0000     0.34045368     4.18030435     0.34447758
    6 O                    8.0000    -0.45191223     4.45832778     1.23348053
    7 N                    7.0000     0.32939701     3.02044553    -0.30821091
    8 H                    1.0000     1.03940644     2.85014686    -1.00575946
    9 C                    6.0000    -0.60709467     1.92708302    -0.04881210
   10 H                    1.0000    -0.86029387     1.92331814     1.01349294
   11 C                    6.0000    -1.89285521     2.17100621    -0.85241480
   12 H                    1.0000    -2.32969914     3.12956560    -0.56898177
   13 H                    1.0000    -1.66858696     2.18064483    -1.92084348
   14 H                    1.0000    -2.61772004     1.38280587    -0.64659885
   15 C                    6.0000     0.02353980     0.56410484    -0.39038000
   16 O                    8.0000     1.00621839     0.49153374    -1.12770098
   17 N                    7.0000    -0.54849361    -0.52188773     0.13392040
   18 H                    1.0000    -1.38057418    -0.41274376     0.69779495
   19 C                    6.0000    -0.12370985    -1.89759763    -0.13519484
   20 H                    1.0000     0.19957085    -1.96770840    -1.17536458
   21 C                    6.0000     1.06964733    -2.22740607     0.77795850
   22 H                    1.0000     1.78349621    -1.40093006     0.76476036
   23 H                    1.0000     0.71495767    -2.36583604     1.80159827
   24 S                   16.0000     1.91598011    -3.73310341     0.21484718
   25 H                    1.0000     2.59413587    -3.17047787    -0.79353483
   26 C                    6.0000    -1.30746578    -2.86815804     0.06098976
   27 O                    8.0000    -2.31723312    -2.51072226     0.65916580
   28 N                    7.0000    -1.21987821    -4.09438877    -0.43423100
   29 H                    1.0000    -1.99533689    -4.72112073    -0.29354739
   30 H                    1.0000    -0.36659568    -4.40095394    -0.87285241

         Total SCF energy =  -1097.314814319418

 Vector   90  Occ=0.000000D+00  E= 1.545928D-01

 Vector   91  Occ=0.000000D+00  E= 1.592143D-01

 Vector   92  Occ=0.000000D+00  E= 1.626936D-01

 Vector   93  Occ=0.000000D+00  E= 1.676355D-01

 Vector   94  Occ=0.000000D+00  E= 1.707548D-01

 Vector   95  Occ=0.000000D+00  E= 1.741340D-01

 Vector   96  Occ=0.000000D+00  E= 1.760200D-01

 Vector   97  Occ=0.000000D+00  E= 1.799159D-01

 Vector   98  Occ=0.000000D+00  E= 1.829542D-01

 Vector   99  Occ=0.000000D+00  E= 1.836893D-01

 Vector  100  Occ=0.000000D+00  E= 1.867195D-01

 Vector  101  Occ=0.000000D+00  E= 1.918350D-01

 Vector  102  Occ=0.000000D+00  E= 1.965216D-01

 Vector  103  Occ=0.000000D+00  E= 1.985955D-01

 Vector  104  Occ=0.000000D+00  E= 2.022516D-01

 Vector  105  Occ=0.000000D+00  E= 2.045065D-01

 Vector  106  Occ=0.000000D+00  E= 2.085046D-01

 Vector  107  Occ=0.000000D+00  E= 2.112374D-01

 Vector  108  Occ=0.000000D+00  E= 2.199009D-01

 Vector  109  Occ=0.000000D+00  E= 2.217151D-01

 Vector  110  Occ=0.000000D+00  E= 2.320978D-01

 Vector  111  Occ=0.000000D+00  E= 2.324430D-01

 Vector  112  Occ=0.000000D+00  E= 2.348125D-01

 Vector  113  Occ=0.000000D+00  E= 2.421711D-01

 Vector  114  Occ=0.000000D+00  E= 2.441944D-01

 Vector  115  Occ=0.000000D+00  E= 2.504277D-01

 Vector  116  Occ=0.000000D+00  E= 2.557859D-01

 Vector  117  Occ=0.000000D+00  E= 2.574596D-01

 Vector  118  Occ=0.000000D+00  E= 2.655502D-01

 Vector  119  Occ=0.000000D+00  E= 2.668465D-01

 Vector  120  Occ=0.000000D+00  E= 2.812074D-01

 Vector  121  Occ=0.000000D+00  E= 2.877692D-01

 Vector  122  Occ=0.000000D+00  E= 2.951197D-01

 Vector  123  Occ=0.000000D+00  E= 2.982354D-01

 Vector  124  Occ=0.000000D+00  E= 3.038466D-01

 Vector  125  Occ=0.000000D+00  E= 3.087132D-01

 Vector  126  Occ=0.000000D+00  E= 3.119726D-01

 Vector  127  Occ=0.000000D+00  E= 3.192492D-01

 Vector  128  Occ=0.000000D+00  E= 3.211093D-01

 Vector  129  Occ=0.000000D+00  E= 3.251970D-01

 Vector  130  Occ=0.000000D+00  E= 3.278508D-01

 Vector  131  Occ=0.000000D+00  E= 3.380109D-01

 Vector  132  Occ=0.000000D+00  E= 3.425364D-01

 Vector  133  Occ=0.000000D+00  E= 3.480552D-01

 Vector  134  Occ=0.000000D+00  E= 3.512187D-01

 Vector  135  Occ=0.000000D+00  E= 3.528949D-01

 Vector  136  Occ=0.000000D+00  E= 3.578679D-01

 Vector  137  Occ=0.000000D+00  E= 3.644321D-01

 Vector  138  Occ=0.000000D+00  E= 3.690408D-01

 Vector  139  Occ=0.000000D+00  E= 3.726403D-01

 Vector  140  Occ=0.000000D+00  E= 3.775990D-01

 Vector  141  Occ=0.000000D+00  E= 3.779945D-01

 Vector  142  Occ=0.000000D+00  E= 3.785628D-01

 Vector  143  Occ=0.000000D+00  E= 3.876432D-01

 Vector  144  Occ=0.000000D+00  E= 3.910772D-01

 Vector  145  Occ=0.000000D+00  E= 3.921091D-01

 Vector  146  Occ=0.000000D+00  E= 3.961172D-01

 Vector  147  Occ=0.000000D+00  E= 4.071281D-01

 Vector  148  Occ=0.000000D+00  E= 4.088766D-01

 Vector  149  Occ=0.000000D+00  E= 4.137759D-01

 Vector  150  Occ=0.000000D+00  E= 4.165701D-01

 Vector  151  Occ=0.000000D+00  E= 4.225406D-01

 Vector  152  Occ=0.000000D+00  E= 4.249952D-01

 Vector  153  Occ=0.000000D+00  E= 4.322960D-01

 Vector  154  Occ=0.000000D+00  E= 4.347874D-01

 Vector  155  Occ=0.000000D+00  E= 4.423537D-01

 Vector  156  Occ=0.000000D+00  E= 4.472874D-01

 Vector  157  Occ=0.000000D+00  E= 4.493557D-01

 Vector  158  Occ=0.000000D+00  E= 4.524204D-01

 Vector  159  Occ=0.000000D+00  E= 4.547776D-01

 Vector  160  Occ=0.000000D+00  E= 4.605378D-01

 Vector  161  Occ=0.000000D+00  E= 4.662694D-01

 Vector  162  Occ=0.000000D+00  E= 4.678290D-01

 Vector  163  Occ=0.000000D+00  E= 4.714619D-01

 Vector  164  Occ=0.000000D+00  E= 4.770733D-01

 Vector  165  Occ=0.000000D+00  E= 4.816313D-01

 Vector  166  Occ=0.000000D+00  E= 4.843932D-01

 Vector  167  Occ=0.000000D+00  E= 4.919201D-01

 Vector  168  Occ=0.000000D+00  E= 4.967262D-01

 Vector  169  Occ=0.000000D+00  E= 5.039605D-01

       Multipole analysis of the density wrt the origin
       ------------------------------------------------

     L   x y z        total         open         nuclear
     -   - - -        -----         ----         -------
     0   0 0 0     -0.000000      0.000000    124.000000

     1   1 0 0      0.734339      0.000000      0.000000
     1   0 1 0     -1.281898      0.000000      0.000000
     1   0 0 1     -1.104200      0.000000      0.000000

     2   2 0 0    -77.302772      0.000000    787.619120
     2   1 1 0      5.860155      0.000000     20.354335
     2   1 0 1      3.402474      0.000000      7.312328
     2   0 2 0    -70.761717      0.000000   4343.625489
     2   0 1 1     -3.705093      0.000000    -10.154015

 Total times  cpu:     3235.3s     wall:     3398.9s
