 Output coordinates in angstroms (scale by  1.889725989 to convert to a.u.)

  No.       Tag          Charge          X              Y              Z
 ---- ---------------- ---------- -------------- -------------- --------------
    1 H                    1.0000     2.10139176    -6.72334504    -0.71839457
    2 C                    6.0000     2.05951588    -5.84110264    -0.08219905
    3 H                    1.0000     2.94319464    -5.22798843    -0.24765844
    4 H                    1.0000     2.00663515    -6.14399722     0.96143140
    5 C                    6.0000     0.82441056    -5.04372140    -0.43309224
    6 O                    8.0000     0.06960535    -5.43594652    -1.31235416
    7 N                    7.0000     0.62672893    -3.92174474     0.25384834
    8 H                    1.0000     1.31466448    -3.64512358     0.93926969
    9 C                    6.0000    -0.49207480    -3.00181889     0.04573387
   10 H                    1.0000    -0.76210805    -3.00696531    -1.01172798
   11 C                    6.0000    -1.69950545    -3.49453839     0.85852457
   12 H                    1.0000    -2.55337721    -2.83762021     0.69074640
   13 H                    1.0000    -1.96720312    -4.50390426     0.54542476
   14 H                    1.0000    -1.45563987    -3.50073348     1.92195496
   15 C                    6.0000    -0.10222961    -1.56278827     0.42892782
   16 O                    8.0000     0.86158493    -1.34677339     1.16373194
   17 N                    7.0000    -0.86350575    -0.57669858    -0.05261008
   18 H                    1.0000    -1.66851625    -0.81233956    -0.61652801
   19 C                    6.0000    -0.65915031     0.84820088     0.22786160
   20 H                    1.0000    -0.26510894     0.95319859     1.23982943
   21 C                    6.0000     0.37804497     1.41439674    -0.75738821
   22 H                    1.0000     1.28386714     0.80725003    -0.70573479
   23 H                    1.0000    -0.01399593     1.32981411    -1.77222353
   24 C                    6.0000     0.76514761     2.85500292    -0.48659976
   25 C                    6.0000     1.62835885     3.15856833     0.58302653
   26 H                    1.0000     2.03641939     2.36224636     1.19029410
   27 C                    6.0000     1.96494996     4.49494603     0.86187786
   28 H                    1.0000     2.63174316     4.72494434     1.68082940
   29 C                    6.0000     1.43875924     5.53183665     0.07219048
   30 H                    1.0000     1.70088114     6.55935054     0.28357716
   31 C                    6.0000     0.57766274     5.23282187    -0.99878477
   32 H                    1.0000     0.17659951     6.03048815    -1.60833935
   33 C                    6.0000     0.24118105     3.89592272    -1.27848234
   34 H                    1.0000    -0.42409681     3.67095238    -2.10033617
   35 C                    6.0000    -1.99309360     1.61172537     0.16156949
   36 O                    8.0000    -2.94754558     1.15899120    -0.46160880
   37 N                    7.0000    -2.09074357     2.77330077     0.79568389
   38 H                    1.0000    -1.28900512     3.16315313     1.26533547
   39 H                    1.0000    -2.96472246     3.26973545     0.74664808

         Total SCF energy =   -929.352107936693

 Vector  130  Occ=0.000000D+00  E= 2.102896D-01

 Vector  131  Occ=0.000000D+00  E= 2.137892D-01

 Vector  132  Occ=0.000000D+00  E= 2.164692D-01

 Vector  133  Occ=0.000000D+00  E= 2.190220D-01

 Vector  134  Occ=0.000000D+00  E= 2.215441D-01

 Vector  135  Occ=0.000000D+00  E= 2.253837D-01

 Vector  136  Occ=0.000000D+00  E= 2.317453D-01

 Vector  137  Occ=0.000000D+00  E= 2.343024D-01

 Vector  138  Occ=0.000000D+00  E= 2.375844D-01

 Vector  139  Occ=0.000000D+00  E= 2.422125D-01

 Vector  140  Occ=0.000000D+00  E= 2.448092D-01

 Vector  141  Occ=0.000000D+00  E= 2.531179D-01

 Vector  142  Occ=0.000000D+00  E= 2.562191D-01

 Vector  143  Occ=0.000000D+00  E= 2.594275D-01

 Vector  144  Occ=0.000000D+00  E= 2.688871D-01

 Vector  145  Occ=0.000000D+00  E= 2.770694D-01

 Vector  146  Occ=0.000000D+00  E= 2.821000D-01

 Vector  147  Occ=0.000000D+00  E= 2.847991D-01

 Vector  148  Occ=0.000000D+00  E= 2.885824D-01

 Vector  149  Occ=0.000000D+00  E= 2.956927D-01

 Vector  150  Occ=0.000000D+00  E= 2.990032D-01

 Vector  151  Occ=0.000000D+00  E= 3.040795D-01

 Vector  152  Occ=0.000000D+00  E= 3.085203D-01

 Vector  153  Occ=0.000000D+00  E= 3.120644D-01

 Vector  154  Occ=0.000000D+00  E= 3.127261D-01

 Vector  155  Occ=0.000000D+00  E= 3.139046D-01

 Vector  156  Occ=0.000000D+00  E= 3.220297D-01

 Vector  157  Occ=0.000000D+00  E= 3.253468D-01

 Vector  158  Occ=0.000000D+00  E= 3.259614D-01

 Vector  159  Occ=0.000000D+00  E= 3.298753D-01

 Vector  160  Occ=0.000000D+00  E= 3.327963D-01

 Vector  161  Occ=0.000000D+00  E= 3.381385D-01

 Vector  162  Occ=0.000000D+00  E= 3.384368D-01

 Vector  163  Occ=0.000000D+00  E= 3.430287D-01

 Vector  164  Occ=0.000000D+00  E= 3.464970D-01

 Vector  165  Occ=0.000000D+00  E= 3.516201D-01

 Vector  166  Occ=0.000000D+00  E= 3.536573D-01

 Vector  167  Occ=0.000000D+00  E= 3.577646D-01

 Vector  168  Occ=0.000000D+00  E= 3.616345D-01

 Vector  169  Occ=0.000000D+00  E= 3.638106D-01

 Vector  170  Occ=0.000000D+00  E= 3.695319D-01

 Vector  171  Occ=0.000000D+00  E= 3.722134D-01

 Vector  172  Occ=0.000000D+00  E= 3.774197D-01

 Vector  173  Occ=0.000000D+00  E= 3.775635D-01

 Vector  174  Occ=0.000000D+00  E= 3.844904D-01

 Vector  175  Occ=0.000000D+00  E= 3.851235D-01

 Vector  176  Occ=0.000000D+00  E= 3.866717D-01

 Vector  177  Occ=0.000000D+00  E= 3.889329D-01

 Vector  178  Occ=0.000000D+00  E= 3.932384D-01

 Vector  179  Occ=0.000000D+00  E= 3.958738D-01

 Vector  180  Occ=0.000000D+00  E= 3.989211D-01

 Vector  181  Occ=0.000000D+00  E= 4.014885D-01

 Vector  182  Occ=0.000000D+00  E= 4.065843D-01

 Vector  183  Occ=0.000000D+00  E= 4.093958D-01

 Vector  184  Occ=0.000000D+00  E= 4.112757D-01

 Vector  185  Occ=0.000000D+00  E= 4.127993D-01

 Vector  186  Occ=0.000000D+00  E= 4.199318D-01

 Vector  187  Occ=0.000000D+00  E= 4.224148D-01

 Vector  188  Occ=0.000000D+00  E= 4.285749D-01

 Vector  189  Occ=0.000000D+00  E= 4.297483D-01

 Vector  190  Occ=0.000000D+00  E= 4.321670D-01

 Vector  191  Occ=0.000000D+00  E= 4.332232D-01

 Vector  192  Occ=0.000000D+00  E= 4.380313D-01

 Vector  193  Occ=0.000000D+00  E= 4.432432D-01

 Vector  194  Occ=0.000000D+00  E= 4.477960D-01

 Vector  195  Occ=0.000000D+00  E= 4.513373D-01

 Vector  196  Occ=0.000000D+00  E= 4.527296D-01

 Vector  197  Occ=0.000000D+00  E= 4.567544D-01

 Vector  198  Occ=0.000000D+00  E= 4.603240D-01

 Vector  199  Occ=0.000000D+00  E= 4.658137D-01

 Vector  200  Occ=0.000000D+00  E= 4.684125D-01

 Vector  201  Occ=0.000000D+00  E= 4.705810D-01

 Vector  202  Occ=0.000000D+00  E= 4.768440D-01

 Vector  203  Occ=0.000000D+00  E= 4.771366D-01

 Vector  204  Occ=0.000000D+00  E= 4.794900D-01

 Vector  205  Occ=0.000000D+00  E= 4.831061D-01

 Vector  206  Occ=0.000000D+00  E= 4.849350D-01

 Vector  207  Occ=0.000000D+00  E= 4.934860D-01

 Vector  208  Occ=0.000000D+00  E= 4.972693D-01

 Vector  209  Occ=0.000000D+00  E= 5.008574D-01

       Multipole analysis of the density wrt the origin
       ------------------------------------------------

     L   x y z        total         open         nuclear
     -   - - -        -----         ----         -------
     0   0 0 0     -0.000000      0.000000    148.000000

     1   1 0 0      0.597453      0.000000      0.000000
     1   0 1 0      2.019647      0.000000      0.000000
     1   0 0 1      1.067506      0.000000     -0.000000

     2   2 0 0    -92.839589      0.000000   1100.366231
     2   1 1 0     -6.272758      0.000000    -12.261161
     2   1 0 1     -1.978170      0.000000      0.028508
     2   0 2 0    -85.805671      0.000000   6943.393336
     2   0 1 1     -6.785776      0.000000    -19.339060

 Total times  cpu:     5079.0s     wall:     5158.7s
