 Output coordinates in angstroms (scale by  1.889725989 to convert to a.u.)

  No.       Tag          Charge          X              Y              Z
 ---- ---------------- ---------- -------------- -------------- --------------
    1 H                    1.0000     1.69962857     4.37997741    -0.82956274
    2 C                    6.0000     1.22951376     4.37881663     0.15136168
    3 H                    1.0000     0.84460645     5.37386040     0.37327215
    4 H                    1.0000     1.95322338     4.09017147     0.91126586
    5 C                    6.0000     0.08011089     3.39857456     0.15490002
    6 O                    8.0000    -1.05796677     3.78461326     0.38315505
    7 N                    7.0000     0.38326134     2.12646364    -0.09398472
    8 H                    1.0000     1.35021304     1.87779627    -0.23872914
    9 C                    6.0000    -0.58856217     1.03212948    -0.11521665
   10 H                    1.0000    -1.37661156     1.24700230     0.60748096
   11 C                    6.0000    -1.21931853     0.95327279    -1.51327996
   12 H                    1.0000    -1.70300249     1.90217356    -1.75301763
   13 H                    1.0000    -0.45085001     0.74457505    -2.25837082
   14 H                    1.0000    -1.96925137     0.16231269    -1.54163247
   15 C                    6.0000     0.06884598    -0.30307714     0.28161559
   16 O                    8.0000     1.28483616    -0.45930844     0.17114087
   17 N                    7.0000    -0.74004758    -1.27695736     0.71290845
   18 H                    1.0000    -1.72838539    -1.08168851     0.75230946
   19 C                    6.0000    -0.29927272    -2.60958779     1.15420840
   20 H                    1.0000     0.55592609    -2.49422222     1.82038464
   21 H                    1.0000    -1.10362125    -3.08315993     1.71779324
   22 C                    6.0000     0.11563306    -3.56321392     0.02498726
   23 O                    8.0000    -0.32486555    -4.70354867    -0.01160027
   24 N                    7.0000     0.91722292    -3.11892843    -0.93223534
   25 H                    1.0000     1.17620201    -3.74659405    -1.67352657
   26 H                    1.0000     1.29113348    -2.18178629    -0.86750893

         Total SCF energy =   -660.742394386390

 Vector   63  Occ=0.000000D+00  E= 9.414522D-02

 Vector   64  Occ=0.000000D+00  E= 9.970204D-02

 Vector   65  Occ=0.000000D+00  E= 1.078250D-01

 Vector   66  Occ=0.000000D+00  E= 1.211126D-01

 Vector   67  Occ=0.000000D+00  E= 1.234027D-01

 Vector   68  Occ=0.000000D+00  E= 1.304916D-01

 Vector   69  Occ=0.000000D+00  E= 1.345811D-01

 Vector   70  Occ=0.000000D+00  E= 1.362054D-01

 Vector   71  Occ=0.000000D+00  E= 1.403571D-01

 Vector   72  Occ=0.000000D+00  E= 1.455328D-01

 Vector   73  Occ=0.000000D+00  E= 1.511899D-01

 Vector   74  Occ=0.000000D+00  E= 1.529352D-01

 Vector   75  Occ=0.000000D+00  E= 1.541765D-01

 Vector   76  Occ=0.000000D+00  E= 1.544143D-01

 Vector   77  Occ=0.000000D+00  E= 1.639125D-01

 Vector   78  Occ=0.000000D+00  E= 1.688939D-01

 Vector   79  Occ=0.000000D+00  E= 1.694738D-01

 Vector   80  Occ=0.000000D+00  E= 1.740947D-01

 Vector   81  Occ=0.000000D+00  E= 1.774940D-01

 Vector   82  Occ=0.000000D+00  E= 1.805424D-01

 Vector   83  Occ=0.000000D+00  E= 1.829681D-01

 Vector   84  Occ=0.000000D+00  E= 1.870734D-01

 Vector   85  Occ=0.000000D+00  E= 1.902232D-01

 Vector   86  Occ=0.000000D+00  E= 1.925323D-01

 Vector   87  Occ=0.000000D+00  E= 1.988700D-01

 Vector   88  Occ=0.000000D+00  E= 2.074613D-01

 Vector   89  Occ=0.000000D+00  E= 2.115967D-01

 Vector   90  Occ=0.000000D+00  E= 2.205960D-01

 Vector   91  Occ=0.000000D+00  E= 2.230092D-01

 Vector   92  Occ=0.000000D+00  E= 2.270446D-01

 Vector   93  Occ=0.000000D+00  E= 2.313232D-01

 Vector   94  Occ=0.000000D+00  E= 2.373737D-01

 Vector   95  Occ=0.000000D+00  E= 2.385911D-01

 Vector   96  Occ=0.000000D+00  E= 2.513728D-01

 Vector   97  Occ=0.000000D+00  E= 2.552408D-01

 Vector   98  Occ=0.000000D+00  E= 2.595131D-01

 Vector   99  Occ=0.000000D+00  E= 2.690650D-01

 Vector  100  Occ=0.000000D+00  E= 2.833202D-01

 Vector  101  Occ=0.000000D+00  E= 2.872170D-01

 Vector  102  Occ=0.000000D+00  E= 2.893888D-01

 Vector  103  Occ=0.000000D+00  E= 3.024612D-01

 Vector  104  Occ=0.000000D+00  E= 3.048160D-01

 Vector  105  Occ=0.000000D+00  E= 3.124626D-01

 Vector  106  Occ=0.000000D+00  E= 3.154182D-01

 Vector  107  Occ=0.000000D+00  E= 3.211509D-01

 Vector  108  Occ=0.000000D+00  E= 3.251457D-01

 Vector  109  Occ=0.000000D+00  E= 3.269195D-01

 Vector  110  Occ=0.000000D+00  E= 3.390098D-01

 Vector  111  Occ=0.000000D+00  E= 3.432609D-01

 Vector  112  Occ=0.000000D+00  E= 3.464547D-01

 Vector  113  Occ=0.000000D+00  E= 3.497768D-01

 Vector  114  Occ=0.000000D+00  E= 3.562436D-01

 Vector  115  Occ=0.000000D+00  E= 3.583298D-01

 Vector  116  Occ=0.000000D+00  E= 3.616306D-01

 Vector  117  Occ=0.000000D+00  E= 3.690555D-01

 Vector  118  Occ=0.000000D+00  E= 3.739437D-01

 Vector  119  Occ=0.000000D+00  E= 3.798917D-01

 Vector  120  Occ=0.000000D+00  E= 3.803560D-01

 Vector  121  Occ=0.000000D+00  E= 3.849543D-01

 Vector  122  Occ=0.000000D+00  E= 3.903287D-01

 Vector  123  Occ=0.000000D+00  E= 3.963044D-01

 Vector  124  Occ=0.000000D+00  E= 3.970968D-01

 Vector  125  Occ=0.000000D+00  E= 4.053356D-01

 Vector  126  Occ=0.000000D+00  E= 4.137032D-01

 Vector  127  Occ=0.000000D+00  E= 4.244714D-01

 Vector  128  Occ=0.000000D+00  E= 4.265407D-01

 Vector  129  Occ=0.000000D+00  E= 4.357632D-01

 Vector  130  Occ=0.000000D+00  E= 4.395922D-01

 Vector  131  Occ=0.000000D+00  E= 4.432324D-01

 Vector  132  Occ=0.000000D+00  E= 4.446924D-01

 Vector  133  Occ=0.000000D+00  E= 4.522432D-01

 Vector  134  Occ=0.000000D+00  E= 4.593774D-01

 Vector  135  Occ=0.000000D+00  E= 4.623303D-01

 Vector  136  Occ=0.000000D+00  E= 4.696685D-01

 Vector  137  Occ=0.000000D+00  E= 4.714911D-01

 Vector  138  Occ=0.000000D+00  E= 4.722346D-01

 Vector  139  Occ=0.000000D+00  E= 4.783728D-01

 Vector  140  Occ=0.000000D+00  E= 4.839861D-01

 Vector  141  Occ=0.000000D+00  E= 4.900738D-01

 Vector  142  Occ=0.000000D+00  E= 5.002000D-01

       Multipole analysis of the density wrt the origin
       ------------------------------------------------

     L   x y z        total         open         nuclear
     -   - - -        -----         ----         -------
     0   0 0 0     -0.000000      0.000000    100.000000

     1   1 0 0      0.501529      0.000000     -0.000000
     1   0 1 0      0.666432      0.000000      0.000000
     1   0 0 1     -0.275138      0.000000      0.000000

     2   2 0 0    -57.262665      0.000000    286.368285
     2   1 1 0      6.637227      0.000000     24.033414
     2   1 0 1     -2.083763      0.000000      2.282655
     2   0 2 0    -83.169022      0.000000   2956.729640
     2   0 1 1     -2.389840      0.000000     -9.667039

 Total times  cpu:     1798.9s     wall:     1963.7s
