 Output coordinates in angstroms (scale by  1.889725989 to convert to a.u.)

  No.       Tag          Charge          X              Y              Z
 ---- ---------------- ---------- -------------- -------------- --------------
    1 H                    1.0000     2.33732746    -3.69713936     0.13943997
    2 C                    6.0000     2.43312806    -2.67720472     0.50837840
    3 H                    1.0000     3.40095824    -2.27507706     0.20891204
    4 H                    1.0000     2.35555594    -2.66519277     1.59402856
    5 C                    6.0000     1.34195368    -1.82325911    -0.08993705
    6 O                    8.0000     1.62548112    -0.85359057    -0.77914320
    7 N                    7.0000     0.08667158    -2.16223593     0.20229325
    8 H                    1.0000    -0.06072913    -2.97212515     0.78236608
    9 C                    6.0000    -1.10239556    -1.53511483    -0.39473646
   10 H                    1.0000    -1.02260315    -1.62839589    -1.47920352
   11 C                    6.0000    -2.32891154    -2.33609565     0.06017702
   12 H                    1.0000    -3.22253603    -1.93868841    -0.42410880
   13 H                    1.0000    -2.21877088    -3.38457177    -0.22067857
   14 H                    1.0000    -2.45044845    -2.25782688     1.14181086
   15 C                    6.0000    -1.28184982    -0.02468974    -0.10451202
   16 O                    8.0000    -2.13629303     0.60980606    -0.71474957
   17 N                    7.0000    -0.48684154     0.55952910     0.80057316
   18 H                    1.0000     0.21800916    -0.01250194     1.23465956
   19 C                    6.0000    -0.43894278     2.00776401     1.04098808
   20 H                    1.0000    -1.44932784     2.41647211     0.99170600
   21 H                    1.0000    -0.04946227     2.18756265     2.04201874
   22 C                    6.0000     0.43327625     2.79542225     0.05097724
   23 O                    8.0000     0.50736046     4.01363272     0.13753809
   24 N                    7.0000     1.12520121     2.14629360    -0.87911299
   25 H                    1.0000     1.68395965     2.68524505    -1.51937336
   26 H                    1.0000     1.09291036     1.13741298    -0.93502534

         Total SCF energy =   -660.741213932172

 Vector   62  Occ=0.000000D+00  E= 8.596458D-02

 Vector   63  Occ=0.000000D+00  E= 9.953089D-02

 Vector   64  Occ=0.000000D+00  E= 1.070991D-01

 Vector   65  Occ=0.000000D+00  E= 1.128717D-01

 Vector   66  Occ=0.000000D+00  E= 1.224657D-01

 Vector   67  Occ=0.000000D+00  E= 1.248671D-01

 Vector   68  Occ=0.000000D+00  E= 1.348288D-01

 Vector   69  Occ=0.000000D+00  E= 1.409757D-01

 Vector   70  Occ=0.000000D+00  E= 1.455969D-01

 Vector   71  Occ=0.000000D+00  E= 1.465978D-01

 Vector   72  Occ=0.000000D+00  E= 1.487787D-01

 Vector   73  Occ=0.000000D+00  E= 1.508436D-01

 Vector   74  Occ=0.000000D+00  E= 1.563526D-01

 Vector   75  Occ=0.000000D+00  E= 1.600898D-01

 Vector   76  Occ=0.000000D+00  E= 1.611083D-01

 Vector   77  Occ=0.000000D+00  E= 1.634015D-01

 Vector   78  Occ=0.000000D+00  E= 1.664092D-01

 Vector   79  Occ=0.000000D+00  E= 1.689695D-01

 Vector   80  Occ=0.000000D+00  E= 1.718836D-01

 Vector   81  Occ=0.000000D+00  E= 1.782474D-01

 Vector   82  Occ=0.000000D+00  E= 1.819389D-01

 Vector   83  Occ=0.000000D+00  E= 1.860852D-01

 Vector   84  Occ=0.000000D+00  E= 1.898465D-01

 Vector   85  Occ=0.000000D+00  E= 1.904654D-01

 Vector   86  Occ=0.000000D+00  E= 2.008793D-01

 Vector   87  Occ=0.000000D+00  E= 2.044861D-01

 Vector   88  Occ=0.000000D+00  E= 2.063092D-01

 Vector   89  Occ=0.000000D+00  E= 2.108052D-01

 Vector   90  Occ=0.000000D+00  E= 2.133422D-01

 Vector   91  Occ=0.000000D+00  E= 2.251366D-01

 Vector   92  Occ=0.000000D+00  E= 2.299719D-01

 Vector   93  Occ=0.000000D+00  E= 2.437537D-01

 Vector   94  Occ=0.000000D+00  E= 2.452675D-01

 Vector   95  Occ=0.000000D+00  E= 2.536169D-01

 Vector   96  Occ=0.000000D+00  E= 2.602122D-01

 Vector   97  Occ=0.000000D+00  E= 2.664396D-01

 Vector   98  Occ=0.000000D+00  E= 2.709713D-01

 Vector   99  Occ=0.000000D+00  E= 2.774815D-01

 Vector  100  Occ=0.000000D+00  E= 2.836916D-01

 Vector  101  Occ=0.000000D+00  E= 2.876224D-01

 Vector  102  Occ=0.000000D+00  E= 2.973529D-01

 Vector  103  Occ=0.000000D+00  E= 3.081567D-01

 Vector  104  Occ=0.000000D+00  E= 3.150909D-01

 Vector  105  Occ=0.000000D+00  E= 3.225082D-01

 Vector  106  Occ=0.000000D+00  E= 3.229313D-01

 Vector  107  Occ=0.000000D+00  E= 3.293413D-01

 Vector  108  Occ=0.000000D+00  E= 3.411295D-01

 Vector  109  Occ=0.000000D+00  E= 3.424147D-01

 Vector  110  Occ=0.000000D+00  E= 3.466927D-01

 Vector  111  Occ=0.000000D+00  E= 3.494295D-01

 Vector  112  Occ=0.000000D+00  E= 3.560606D-01

 Vector  113  Occ=0.000000D+00  E= 3.584536D-01

 Vector  114  Occ=0.000000D+00  E= 3.640685D-01

 Vector  115  Occ=0.000000D+00  E= 3.663712D-01

 Vector  116  Occ=0.000000D+00  E= 3.741391D-01

 Vector  117  Occ=0.000000D+00  E= 3.779456D-01

 Vector  118  Occ=0.000000D+00  E= 3.854497D-01

 Vector  119  Occ=0.000000D+00  E= 3.863759D-01

 Vector  120  Occ=0.000000D+00  E= 3.897931D-01

 Vector  121  Occ=0.000000D+00  E= 3.932645D-01

 Vector  122  Occ=0.000000D+00  E= 4.021471D-01

 Vector  123  Occ=0.000000D+00  E= 4.051181D-01

 Vector  124  Occ=0.000000D+00  E= 4.137586D-01

 Vector  125  Occ=0.000000D+00  E= 4.166960D-01

 Vector  126  Occ=0.000000D+00  E= 4.176121D-01

 Vector  127  Occ=0.000000D+00  E= 4.246864D-01

 Vector  128  Occ=0.000000D+00  E= 4.288224D-01

 Vector  129  Occ=0.000000D+00  E= 4.318234D-01

 Vector  130  Occ=0.000000D+00  E= 4.341912D-01

 Vector  131  Occ=0.000000D+00  E= 4.399276D-01

 Vector  132  Occ=0.000000D+00  E= 4.458316D-01

 Vector  133  Occ=0.000000D+00  E= 4.590439D-01

 Vector  134  Occ=0.000000D+00  E= 4.649830D-01

 Vector  135  Occ=0.000000D+00  E= 4.696968D-01

 Vector  136  Occ=0.000000D+00  E= 4.728594D-01

 Vector  137  Occ=0.000000D+00  E= 4.767935D-01

 Vector  138  Occ=0.000000D+00  E= 4.844265D-01

 Vector  139  Occ=0.000000D+00  E= 4.885900D-01

 Vector  140  Occ=0.000000D+00  E= 4.956148D-01

 Vector  141  Occ=0.000000D+00  E= 5.012380D-01

       Multipole analysis of the density wrt the origin
       ------------------------------------------------

     L   x y z        total         open         nuclear
     -   - - -        -----         ----         -------
     0   0 0 0     -0.000000      0.000000    100.000000

     1   1 0 0      0.628878      0.000000      0.000000
     1   0 1 0     -3.837277      0.000000     -0.000000
     1   0 0 1      1.262846      0.000000     -0.000000

     2   2 0 0    -60.173676      0.000000    784.574813
     2   1 1 0      0.214044      0.000000      1.028732
     2   1 0 1     -1.404572      0.000000      0.854939
     2   0 2 0    -66.023620      0.000000   1652.069569
     2   0 1 1     -2.252411      0.000000     -8.296860

 Total times  cpu:     2027.9s     wall:     2213.7s
