 Output coordinates in angstroms (scale by  1.889725989 to convert to a.u.)

  No.       Tag          Charge          X              Y              Z
 ---- ---------------- ---------- -------------- -------------- --------------
    1 H                    1.0000    -3.04433273    -4.26764939    -1.28346766
    2 C                    6.0000    -2.06132921    -4.55166703    -0.90987423
    3 H                    1.0000    -1.41719148    -4.81869746    -1.74606938
    4 H                    1.0000    -2.15788902    -5.39527396    -0.22930715
    5 C                    6.0000    -1.45991625    -3.37859338    -0.17496154
    6 O                    8.0000    -2.07928874    -2.32538615    -0.08497126
    7 N                    7.0000    -0.25339282    -3.56314791     0.35621343
    8 H                    1.0000     0.20574562    -4.44421838     0.19935772
    9 C                    6.0000     0.52818124    -2.49174317     0.97450532
   10 H                    1.0000    -0.14740832    -1.86497774     1.56048556
   11 C                    6.0000     1.55109877    -3.11564366     1.93148072
   12 H                    1.0000     2.24955833    -3.74111453     1.37366585
   13 H                    1.0000     2.10944865    -2.32581024     2.43767197
   14 H                    1.0000     1.03884035    -3.72098896     2.67977570
   15 C                    6.0000     1.20709701    -1.59367098    -0.07900155
   16 O                    8.0000     1.58552981    -2.05589261    -1.15519520
   17 N                    7.0000     1.40383618    -0.31669659     0.25294742
   18 H                    1.0000     1.08933773     0.00570675     1.15647595
   19 C                    6.0000     2.01481506     0.69603168    -0.61358201
   20 H                    1.0000     2.79663405     0.22673289    -1.21239060
   21 C                    6.0000     0.95260469     1.26551855    -1.57261424
   22 H                    1.0000     1.39539753     2.06420216    -2.16811907
   23 H                    1.0000     0.66464225     0.47758884    -2.26933111
   24 C                    6.0000    -0.30425156     1.79247159    -0.89922960
   25 C                    6.0000    -0.35506137     3.11337488    -0.40947776
   26 H                    1.0000     0.49899808     3.76687514    -0.51582558
   27 C                    6.0000    -1.51781909     3.58204363     0.23281975
   28 H                    1.0000    -1.56675669     4.58953211     0.61729743
   29 C                    6.0000    -2.63174549     2.73152233     0.39047916
   30 O                    8.0000    -3.74700814     3.18578844     1.01745407
   31 H                    1.0000    -4.41442580     2.50325373     1.08645426
   32 C                    6.0000    -2.58195210     1.40983299    -0.10135810
   33 H                    1.0000    -3.42470567     0.74662945     0.01848133
   34 C                    6.0000    -1.42053002     0.94703801    -0.74809574
   35 H                    1.0000    -1.38455414    -0.06924260    -1.11958525
   36 C                    6.0000     2.67430387     1.80503334     0.22314903
   37 O                    8.0000     2.43681906     1.93366634     1.41968090
   38 N                    7.0000     3.52012984     2.62624246    -0.38451701
   39 H                    1.0000     3.71744055     2.51989028    -1.36607072
   40 H                    1.0000     3.95581898     3.34807547     0.16681056

         Total SCF energy =  -1004.220519560375

 Vector  134  Occ=0.000000D+00  E= 2.180010D-01

 Vector  135  Occ=0.000000D+00  E= 2.207612D-01

 Vector  136  Occ=0.000000D+00  E= 2.259145D-01

 Vector  137  Occ=0.000000D+00  E= 2.282447D-01

 Vector  138  Occ=0.000000D+00  E= 2.297937D-01

 Vector  139  Occ=0.000000D+00  E= 2.360398D-01

 Vector  140  Occ=0.000000D+00  E= 2.378193D-01

 Vector  141  Occ=0.000000D+00  E= 2.404949D-01

 Vector  142  Occ=0.000000D+00  E= 2.457805D-01

 Vector  143  Occ=0.000000D+00  E= 2.513379D-01

 Vector  144  Occ=0.000000D+00  E= 2.542083D-01

 Vector  145  Occ=0.000000D+00  E= 2.591516D-01

 Vector  146  Occ=0.000000D+00  E= 2.606048D-01

 Vector  147  Occ=0.000000D+00  E= 2.666286D-01

 Vector  148  Occ=0.000000D+00  E= 2.731931D-01

 Vector  149  Occ=0.000000D+00  E= 2.774949D-01

 Vector  150  Occ=0.000000D+00  E= 2.841001D-01

 Vector  151  Occ=0.000000D+00  E= 2.914956D-01

 Vector  152  Occ=0.000000D+00  E= 2.925717D-01

 Vector  153  Occ=0.000000D+00  E= 2.949208D-01

 Vector  154  Occ=0.000000D+00  E= 3.039278D-01

 Vector  155  Occ=0.000000D+00  E= 3.052887D-01

 Vector  156  Occ=0.000000D+00  E= 3.109123D-01

 Vector  157  Occ=0.000000D+00  E= 3.168633D-01

 Vector  158  Occ=0.000000D+00  E= 3.202671D-01

 Vector  159  Occ=0.000000D+00  E= 3.216592D-01

 Vector  160  Occ=0.000000D+00  E= 3.244587D-01

 Vector  161  Occ=0.000000D+00  E= 3.299361D-01

 Vector  162  Occ=0.000000D+00  E= 3.354512D-01

 Vector  163  Occ=0.000000D+00  E= 3.362747D-01

 Vector  164  Occ=0.000000D+00  E= 3.390404D-01

 Vector  165  Occ=0.000000D+00  E= 3.411810D-01

 Vector  166  Occ=0.000000D+00  E= 3.459469D-01

 Vector  167  Occ=0.000000D+00  E= 3.508896D-01

 Vector  168  Occ=0.000000D+00  E= 3.549670D-01

 Vector  169  Occ=0.000000D+00  E= 3.589665D-01

 Vector  170  Occ=0.000000D+00  E= 3.613707D-01

 Vector  171  Occ=0.000000D+00  E= 3.642436D-01

 Vector  172  Occ=0.000000D+00  E= 3.676249D-01

 Vector  173  Occ=0.000000D+00  E= 3.713776D-01

 Vector  174  Occ=0.000000D+00  E= 3.755205D-01

 Vector  175  Occ=0.000000D+00  E= 3.787801D-01

 Vector  176  Occ=0.000000D+00  E= 3.799507D-01

 Vector  177  Occ=0.000000D+00  E= 3.844744D-01

 Vector  178  Occ=0.000000D+00  E= 3.857323D-01

 Vector  179  Occ=0.000000D+00  E= 3.898992D-01

 Vector  180  Occ=0.000000D+00  E= 3.920577D-01

 Vector  181  Occ=0.000000D+00  E= 3.980559D-01

 Vector  182  Occ=0.000000D+00  E= 4.007124D-01

 Vector  183  Occ=0.000000D+00  E= 4.032083D-01

 Vector  184  Occ=0.000000D+00  E= 4.062792D-01

 Vector  185  Occ=0.000000D+00  E= 4.094188D-01

 Vector  186  Occ=0.000000D+00  E= 4.118404D-01

 Vector  187  Occ=0.000000D+00  E= 4.172666D-01

 Vector  188  Occ=0.000000D+00  E= 4.184963D-01

 Vector  189  Occ=0.000000D+00  E= 4.204693D-01

 Vector  190  Occ=0.000000D+00  E= 4.226611D-01

 Vector  191  Occ=0.000000D+00  E= 4.270774D-01

 Vector  192  Occ=0.000000D+00  E= 4.282742D-01

 Vector  193  Occ=0.000000D+00  E= 4.304578D-01

 Vector  194  Occ=0.000000D+00  E= 4.323738D-01

 Vector  195  Occ=0.000000D+00  E= 4.366194D-01

 Vector  196  Occ=0.000000D+00  E= 4.409833D-01

 Vector  197  Occ=0.000000D+00  E= 4.457887D-01

 Vector  198  Occ=0.000000D+00  E= 4.472157D-01

 Vector  199  Occ=0.000000D+00  E= 4.509254D-01

 Vector  200  Occ=0.000000D+00  E= 4.538696D-01

 Vector  201  Occ=0.000000D+00  E= 4.581561D-01

 Vector  202  Occ=0.000000D+00  E= 4.608927D-01

 Vector  203  Occ=0.000000D+00  E= 4.629284D-01

 Vector  204  Occ=0.000000D+00  E= 4.699083D-01

 Vector  205  Occ=0.000000D+00  E= 4.752797D-01

 Vector  206  Occ=0.000000D+00  E= 4.780572D-01

 Vector  207  Occ=0.000000D+00  E= 4.822029D-01

 Vector  208  Occ=0.000000D+00  E= 4.853216D-01

 Vector  209  Occ=0.000000D+00  E= 4.869102D-01

 Vector  210  Occ=0.000000D+00  E= 4.924155D-01

 Vector  211  Occ=0.000000D+00  E= 4.942189D-01

 Vector  212  Occ=0.000000D+00  E= 4.999857D-01

 Vector  213  Occ=0.000000D+00  E= 5.071188D-01

       Multipole analysis of the density wrt the origin
       ------------------------------------------------

     L   x y z        total         open         nuclear
     -   - - -        -----         ----         -------
     0   0 0 0      0.000000      0.000000    156.000000

     1   1 0 0      1.043601      0.000000      0.000000
     1   0 1 0     -0.860211      0.000000      0.000000
     1   0 0 1     -0.274707      0.000000     -0.000000

     2   2 0 0    -85.087402      0.000000   2369.187371
     2   1 1 0     12.060601      0.000000     37.432575
     2   1 0 1     -4.712390      0.000000      3.677273
     2   0 2 0    -79.797484      0.000000   3818.643644
     2   0 1 1     -9.890921      0.000000    -25.485082

 Total times  cpu:    20451.4s     wall:    20553.2s
