 Output coordinates in angstroms (scale by  1.889725989 to convert to a.u.)

  No.       Tag          Charge          X              Y              Z
 ---- ---------------- ---------- -------------- -------------- --------------
    1 H                    1.0000    -0.31044192     4.49923373    -1.78156531
    2 C                    6.0000     0.43871490     4.61824369    -1.00120021
    3 H                    1.0000     0.12781447     5.38833107    -0.29761273
    4 H                    1.0000     1.39128818     4.89729022    -1.45127042
    5 C                    6.0000     0.60900425     3.30839648    -0.26996372
    6 O                    8.0000     1.69459487     2.74186168    -0.26122721
    7 N                    7.0000    -0.46362998     2.82357856     0.35092952
    8 H                    1.0000    -1.33365138     3.32277982     0.27068701
    9 C                    6.0000    -0.47466246     1.51712378     1.00687401
   10 H                    1.0000     0.41470256     1.44429983     1.63588716
   11 C                    6.0000    -1.70895047     1.42237498     1.91169707
   12 H                    1.0000    -1.70569159     0.46769338     2.43831878
   13 H                    1.0000    -1.69494481     2.22959071     2.64555851
   14 H                    1.0000    -2.61785460     1.49376365     1.31236832
   15 C                    6.0000    -0.43000188     0.36760106    -0.01993656
   16 O                    8.0000    -1.13703792     0.39605513    -1.02767184
   17 N                    7.0000     0.36015169    -0.67103752     0.26173211
   18 H                    1.0000     0.90906866    -0.64324309     1.10868348
   19 C                    6.0000     0.54872571    -1.85548977    -0.59085202
   20 H                    1.0000     0.63337092    -1.52195999    -1.62511266
   21 C                    6.0000     1.87335493    -2.52985462    -0.20960212
   22 H                    1.0000     2.05582917    -3.38163482    -0.86712447
   23 H                    1.0000     2.69040903    -1.81525464    -0.32652710
   24 O                    8.0000     1.82499021    -2.96882204     1.13406542
   25 H                    1.0000     1.18151692    -3.69243518     1.16194285
   26 C                    6.0000    -0.63730464    -2.83858587    -0.52603627
   27 O                    8.0000    -0.49170258    -3.99595119    -0.14223870
   28 N                    7.0000    -1.84099893    -2.39266290    -0.85624643
   29 H                    1.0000    -2.62282968    -3.02347045    -0.80523157
   30 H                    1.0000    -1.94728401    -1.42813813    -1.14321064

         Total SCF energy =   -774.657797125517

 Vector   82  Occ=0.000000D+00  E= 1.491568D-01

 Vector   83  Occ=0.000000D+00  E= 1.526549D-01

 Vector   84  Occ=0.000000D+00  E= 1.539428D-01

 Vector   85  Occ=0.000000D+00  E= 1.579074D-01

 Vector   86  Occ=0.000000D+00  E= 1.627571D-01

 Vector   87  Occ=0.000000D+00  E= 1.667371D-01

 Vector   88  Occ=0.000000D+00  E= 1.689250D-01

 Vector   89  Occ=0.000000D+00  E= 1.707171D-01

 Vector   90  Occ=0.000000D+00  E= 1.732328D-01

 Vector   91  Occ=0.000000D+00  E= 1.779183D-01

 Vector   92  Occ=0.000000D+00  E= 1.797355D-01

 Vector   93  Occ=0.000000D+00  E= 1.836745D-01

 Vector   94  Occ=0.000000D+00  E= 1.862539D-01

 Vector   95  Occ=0.000000D+00  E= 1.889180D-01

 Vector   96  Occ=0.000000D+00  E= 1.913961D-01

 Vector   97  Occ=0.000000D+00  E= 1.920344D-01

 Vector   98  Occ=0.000000D+00  E= 1.999917D-01

 Vector   99  Occ=0.000000D+00  E= 2.040081D-01

 Vector  100  Occ=0.000000D+00  E= 2.107541D-01

 Vector  101  Occ=0.000000D+00  E= 2.185743D-01

 Vector  102  Occ=0.000000D+00  E= 2.193349D-01

 Vector  103  Occ=0.000000D+00  E= 2.266485D-01

 Vector  104  Occ=0.000000D+00  E= 2.295660D-01

 Vector  105  Occ=0.000000D+00  E= 2.315789D-01

 Vector  106  Occ=0.000000D+00  E= 2.427627D-01

 Vector  107  Occ=0.000000D+00  E= 2.461671D-01

 Vector  108  Occ=0.000000D+00  E= 2.537546D-01

 Vector  109  Occ=0.000000D+00  E= 2.566826D-01

 Vector  110  Occ=0.000000D+00  E= 2.652718D-01

 Vector  111  Occ=0.000000D+00  E= 2.681690D-01

 Vector  112  Occ=0.000000D+00  E= 2.740107D-01

 Vector  113  Occ=0.000000D+00  E= 2.781592D-01

 Vector  114  Occ=0.000000D+00  E= 2.918318D-01

 Vector  115  Occ=0.000000D+00  E= 2.996418D-01

 Vector  116  Occ=0.000000D+00  E= 3.013458D-01

 Vector  117  Occ=0.000000D+00  E= 3.037366D-01

 Vector  118  Occ=0.000000D+00  E= 3.151416D-01

 Vector  119  Occ=0.000000D+00  E= 3.176739D-01

 Vector  120  Occ=0.000000D+00  E= 3.178576D-01

 Vector  121  Occ=0.000000D+00  E= 3.279403D-01

 Vector  122  Occ=0.000000D+00  E= 3.326212D-01

 Vector  123  Occ=0.000000D+00  E= 3.381510D-01

 Vector  124  Occ=0.000000D+00  E= 3.405470D-01

 Vector  125  Occ=0.000000D+00  E= 3.437299D-01

 Vector  126  Occ=0.000000D+00  E= 3.492795D-01

 Vector  127  Occ=0.000000D+00  E= 3.560645D-01

 Vector  128  Occ=0.000000D+00  E= 3.607594D-01

 Vector  129  Occ=0.000000D+00  E= 3.624803D-01

 Vector  130  Occ=0.000000D+00  E= 3.699783D-01

 Vector  131  Occ=0.000000D+00  E= 3.729067D-01

 Vector  132  Occ=0.000000D+00  E= 3.787736D-01

 Vector  133  Occ=0.000000D+00  E= 3.796467D-01

 Vector  134  Occ=0.000000D+00  E= 3.822496D-01

 Vector  135  Occ=0.000000D+00  E= 3.898971D-01

 Vector  136  Occ=0.000000D+00  E= 3.924095D-01

 Vector  137  Occ=0.000000D+00  E= 3.951691D-01

 Vector  138  Occ=0.000000D+00  E= 3.966045D-01

 Vector  139  Occ=0.000000D+00  E= 3.995893D-01

 Vector  140  Occ=0.000000D+00  E= 4.066832D-01

 Vector  141  Occ=0.000000D+00  E= 4.088400D-01

 Vector  142  Occ=0.000000D+00  E= 4.162907D-01

 Vector  143  Occ=0.000000D+00  E= 4.209661D-01

 Vector  144  Occ=0.000000D+00  E= 4.276687D-01

 Vector  145  Occ=0.000000D+00  E= 4.307393D-01

 Vector  146  Occ=0.000000D+00  E= 4.359944D-01

 Vector  147  Occ=0.000000D+00  E= 4.371877D-01

 Vector  148  Occ=0.000000D+00  E= 4.412772D-01

 Vector  149  Occ=0.000000D+00  E= 4.429237D-01

 Vector  150  Occ=0.000000D+00  E= 4.478222D-01

 Vector  151  Occ=0.000000D+00  E= 4.565130D-01

 Vector  152  Occ=0.000000D+00  E= 4.598653D-01

 Vector  153  Occ=0.000000D+00  E= 4.666949D-01

 Vector  154  Occ=0.000000D+00  E= 4.732107D-01

 Vector  155  Occ=0.000000D+00  E= 4.793471D-01

 Vector  156  Occ=0.000000D+00  E= 4.827523D-01

 Vector  157  Occ=0.000000D+00  E= 4.843803D-01

 Vector  158  Occ=0.000000D+00  E= 4.907627D-01

 Vector  159  Occ=0.000000D+00  E= 4.970111D-01

 Vector  160  Occ=0.000000D+00  E= 4.991357D-01

 Vector  161  Occ=0.000000D+00  E= 5.080303D-01

       Multipole analysis of the density wrt the origin
       ------------------------------------------------

     L   x y z        total         open         nuclear
     -   - - -        -----         ----         -------
     0   0 0 0     -0.000000      0.000000    116.000000

     1   1 0 0     -1.421324      0.000000     -0.000000
     1   0 1 0      1.506916      0.000000     -0.000000
     1   0 0 1      0.312210      0.000000      0.000000

     2   2 0 0    -67.813479      0.000000    635.974671
     2   1 1 0     -5.135233      0.000000    -23.669936
     2   1 0 1     -3.617642      0.000000    -18.169440
     2   0 2 0    -68.876985      0.000000   2937.461665
     2   0 1 1      4.575479      0.000000      1.157456

 Total times  cpu:     3121.9s     wall:     3230.0s
