 Output coordinates in angstroms (scale by  1.889725989 to convert to a.u.)

  No.       Tag          Charge          X              Y              Z
 ---- ---------------- ---------- -------------- -------------- --------------
    1 H                    1.0000     0.48437063    -5.38276451    -0.31070979
    2 C                    6.0000    -0.17309490    -4.63410694    -0.74876448
    3 H                    1.0000    -1.20082672    -4.99435469    -0.72729676
    4 H                    1.0000     0.12276716    -4.43565927    -1.77704420
    5 C                    6.0000    -0.08168731    -3.35659069     0.05201194
    6 O                    8.0000    -1.08302850    -2.90021027     0.59207002
    7 N                    7.0000     1.12208448    -2.79117702     0.12363489
    8 H                    1.0000     1.87209323    -3.21461317    -0.39696352
    9 C                    6.0000     1.39276320    -1.48657954     0.73224350
   10 H                    1.0000     0.62812836    -1.28590276     1.48545821
   11 C                    6.0000     2.75147705    -1.54818190     1.44090479
   12 H                    1.0000     2.74616221    -2.34609114     2.18391596
   13 H                    1.0000     3.54246444    -1.73588158     0.71388431
   14 H                    1.0000     2.94930179    -0.59982381     1.94280449
   15 C                    6.0000     1.34038681    -0.34478497    -0.30382160
   16 O                    8.0000     1.60763350    -0.55494801    -1.48619366
   17 N                    7.0000     0.99996858     0.86513383     0.14931846
   18 H                    1.0000     0.77434772     0.95312079     1.12731515
   19 C                    6.0000     0.79039892     2.05424222    -0.69817655
   20 H                    1.0000     1.58986414     2.11909306    -1.43862691
   21 C                    6.0000    -0.55671188     1.93748206    -1.44773014
   22 H                    1.0000    -0.92274843     2.92989171    -1.71315495
   23 H                    1.0000    -0.37995042     1.39620595    -2.37797020
   24 C                    6.0000    -1.62597540     1.19741459    -0.67791350
   25 N                    7.0000    -2.26233596     1.64696636     0.48252713
   26 C                    6.0000    -2.94621059     0.59394957     0.95678983
   27 H                    1.0000    -3.52280329     0.59777619     1.87229801
   28 N                    7.0000    -2.75220132    -0.48296802     0.17656555
   29 H                    1.0000    -3.01635881    -1.43426125     0.40433519
   30 C                    6.0000    -1.92848126    -0.11841445    -0.86160108
   31 H                    1.0000    -1.49842028    -0.77155673    -1.60922045
   32 C                    6.0000     0.85224603     3.34970587     0.12054615
   33 O                    8.0000     1.67859874     4.21220943    -0.14376011
   34 N                    7.0000     0.02913913     3.49326340     1.14939905
   35 H                    1.0000     0.07311484     4.34489904     1.68178225
   36 H                    1.0000    -0.71438491     2.82016818     1.28521450

         Total SCF energy =   -923.467252363040

 Vector  115  Occ=0.000000D+00  E= 1.917956D-01

 Vector  116  Occ=0.000000D+00  E= 1.957369D-01

 Vector  117  Occ=0.000000D+00  E= 1.993306D-01

 Vector  118  Occ=0.000000D+00  E= 2.014386D-01

 Vector  119  Occ=0.000000D+00  E= 2.066700D-01

 Vector  120  Occ=0.000000D+00  E= 2.090222D-01

 Vector  121  Occ=0.000000D+00  E= 2.119590D-01

 Vector  122  Occ=0.000000D+00  E= 2.155837D-01

 Vector  123  Occ=0.000000D+00  E= 2.158407D-01

 Vector  124  Occ=0.000000D+00  E= 2.201815D-01

 Vector  125  Occ=0.000000D+00  E= 2.216073D-01

 Vector  126  Occ=0.000000D+00  E= 2.285576D-01

 Vector  127  Occ=0.000000D+00  E= 2.344547D-01

 Vector  128  Occ=0.000000D+00  E= 2.404302D-01

 Vector  129  Occ=0.000000D+00  E= 2.414917D-01

 Vector  130  Occ=0.000000D+00  E= 2.434027D-01

 Vector  131  Occ=0.000000D+00  E= 2.445356D-01

 Vector  132  Occ=0.000000D+00  E= 2.536848D-01

 Vector  133  Occ=0.000000D+00  E= 2.563190D-01

 Vector  134  Occ=0.000000D+00  E= 2.648901D-01

 Vector  135  Occ=0.000000D+00  E= 2.699309D-01

 Vector  136  Occ=0.000000D+00  E= 2.768559D-01

 Vector  137  Occ=0.000000D+00  E= 2.807190D-01

 Vector  138  Occ=0.000000D+00  E= 2.845448D-01

 Vector  139  Occ=0.000000D+00  E= 2.880166D-01

 Vector  140  Occ=0.000000D+00  E= 2.948577D-01

 Vector  141  Occ=0.000000D+00  E= 2.981763D-01

 Vector  142  Occ=0.000000D+00  E= 2.984404D-01

 Vector  143  Occ=0.000000D+00  E= 3.052405D-01

 Vector  144  Occ=0.000000D+00  E= 3.104513D-01

 Vector  145  Occ=0.000000D+00  E= 3.143230D-01

 Vector  146  Occ=0.000000D+00  E= 3.166791D-01

 Vector  147  Occ=0.000000D+00  E= 3.253769D-01

 Vector  148  Occ=0.000000D+00  E= 3.265558D-01

 Vector  149  Occ=0.000000D+00  E= 3.338688D-01

 Vector  150  Occ=0.000000D+00  E= 3.360885D-01

 Vector  151  Occ=0.000000D+00  E= 3.422969D-01

 Vector  152  Occ=0.000000D+00  E= 3.441639D-01

 Vector  153  Occ=0.000000D+00  E= 3.511638D-01

 Vector  154  Occ=0.000000D+00  E= 3.536370D-01

 Vector  155  Occ=0.000000D+00  E= 3.559276D-01

 Vector  156  Occ=0.000000D+00  E= 3.623265D-01

 Vector  157  Occ=0.000000D+00  E= 3.646329D-01

 Vector  158  Occ=0.000000D+00  E= 3.680695D-01

 Vector  159  Occ=0.000000D+00  E= 3.729247D-01

 Vector  160  Occ=0.000000D+00  E= 3.744778D-01

 Vector  161  Occ=0.000000D+00  E= 3.780126D-01

 Vector  162  Occ=0.000000D+00  E= 3.821036D-01

 Vector  163  Occ=0.000000D+00  E= 3.872308D-01

 Vector  164  Occ=0.000000D+00  E= 3.896736D-01

 Vector  165  Occ=0.000000D+00  E= 3.919933D-01

 Vector  166  Occ=0.000000D+00  E= 3.983276D-01

 Vector  167  Occ=0.000000D+00  E= 3.996869D-01

 Vector  168  Occ=0.000000D+00  E= 4.010316D-01

 Vector  169  Occ=0.000000D+00  E= 4.036714D-01

 Vector  170  Occ=0.000000D+00  E= 4.110010D-01

 Vector  171  Occ=0.000000D+00  E= 4.134972D-01

 Vector  172  Occ=0.000000D+00  E= 4.162058D-01

 Vector  173  Occ=0.000000D+00  E= 4.203061D-01

 Vector  174  Occ=0.000000D+00  E= 4.238306D-01

 Vector  175  Occ=0.000000D+00  E= 4.263489D-01

 Vector  176  Occ=0.000000D+00  E= 4.302134D-01

 Vector  177  Occ=0.000000D+00  E= 4.344170D-01

 Vector  178  Occ=0.000000D+00  E= 4.377813D-01

 Vector  179  Occ=0.000000D+00  E= 4.428331D-01

 Vector  180  Occ=0.000000D+00  E= 4.448315D-01

 Vector  181  Occ=0.000000D+00  E= 4.459087D-01

 Vector  182  Occ=0.000000D+00  E= 4.508825D-01

 Vector  183  Occ=0.000000D+00  E= 4.568073D-01

 Vector  184  Occ=0.000000D+00  E= 4.596587D-01

 Vector  185  Occ=0.000000D+00  E= 4.620408D-01

 Vector  186  Occ=0.000000D+00  E= 4.653730D-01

 Vector  187  Occ=0.000000D+00  E= 4.699628D-01

 Vector  188  Occ=0.000000D+00  E= 4.719126D-01

 Vector  189  Occ=0.000000D+00  E= 4.784821D-01

 Vector  190  Occ=0.000000D+00  E= 4.803444D-01

 Vector  191  Occ=0.000000D+00  E= 4.875378D-01

 Vector  192  Occ=0.000000D+00  E= 4.899339D-01

 Vector  193  Occ=0.000000D+00  E= 4.962106D-01

 Vector  194  Occ=0.000000D+00  E= 5.002493D-01

       Multipole analysis of the density wrt the origin
       ------------------------------------------------

     L   x y z        total         open         nuclear
     -   - - -        -----         ----         -------
     0   0 0 0     -0.000000      0.000000    142.000000

     1   1 0 0     -0.541789      0.000000     -0.000000
     1   0 1 0     -2.517916      0.000000     -0.000000
     1   0 0 1      1.201055      0.000000     -0.000000

     2   2 0 0    -85.849312      0.000000   1386.743831
     2   1 1 0    -10.289011      0.000000    -28.118793
     2   1 0 1      2.621695      0.000000     17.431202
     2   0 2 0    -88.469192      0.000000   3101.518929
     2   0 1 1      6.116630      0.000000     12.943935

 Total times  cpu:     6060.6s     wall:     6417.4s
