 Output coordinates in angstroms (scale by  1.889725989 to convert to a.u.)

  No.       Tag          Charge          X              Y              Z
 ---- ---------------- ---------- -------------- -------------- --------------
    1 H                    1.0000    -1.36825639    -4.61776400    -0.10250277
    2 C                    6.0000    -1.81214922    -3.65504002    -0.34978942
    3 H                    1.0000    -2.82211818    -3.60583622     0.05541507
    4 H                    1.0000    -1.84759264    -3.52656035    -1.42991429
    5 C                    6.0000    -0.98565905    -2.54898097     0.26189954
    6 O                    8.0000    -1.48796779    -1.77746863     1.06810835
    7 N                    7.0000     0.28360384    -2.46012810    -0.13172832
    8 H                    1.0000     0.61187679    -3.12819277    -0.80881655
    9 C                    6.0000     1.25251604    -1.47507972     0.36353305
   10 H                    1.0000     1.13159546    -1.40293043     1.44573714
   11 C                    6.0000     2.66317983    -2.02035826     0.09020543
   12 H                    1.0000     2.83429802    -2.09718739    -0.98429810
   13 H                    1.0000     3.40585971    -1.34537111     0.51797635
   14 H                    1.0000     2.77968633    -3.00314531     0.54853157
   15 C                    6.0000     1.02713252    -0.04721874    -0.19683228
   16 O                    8.0000     1.93778401     0.56930205    -0.74839186
   17 N                    7.0000    -0.19560533     0.47862911    -0.07730743
   18 H                    1.0000    -0.88887616    -0.08209866     0.40634941
   19 C                    6.0000    -0.63992895     1.77220049    -0.61120498
   20 H                    1.0000    -0.24350603     1.86589448    -1.62334149
   21 C                    6.0000    -2.17248909     1.72988443    -0.71576472
   22 H                    1.0000    -2.53376215     2.64206002    -1.19379763
   23 H                    1.0000    -2.48381471     0.87249203    -1.31424834
   24 H                    1.0000    -2.61143668     1.65548964     0.27987348
   25 C                    6.0000    -0.11502126     3.00372770     0.17305497
   26 O                    8.0000    -0.84434956     3.94991558     0.44557419
   27 N                    7.0000     1.14738074     3.01289336     0.57865229
   28 H                    1.0000     1.75811592     2.25377746     0.31010139
   29 H                    1.0000     1.48105786     3.81081060     1.09268404

         Total SCF energy =   -699.782153441754

 Vector   74  Occ=0.000000D+00  E= 1.382048D-01

 Vector   75  Occ=0.000000D+00  E= 1.414460D-01

 Vector   76  Occ=0.000000D+00  E= 1.458073D-01

 Vector   77  Occ=0.000000D+00  E= 1.474674D-01

 Vector   78  Occ=0.000000D+00  E= 1.512616D-01

 Vector   79  Occ=0.000000D+00  E= 1.555672D-01

 Vector   80  Occ=0.000000D+00  E= 1.579813D-01

 Vector   81  Occ=0.000000D+00  E= 1.621738D-01

 Vector   82  Occ=0.000000D+00  E= 1.635207D-01

 Vector   83  Occ=0.000000D+00  E= 1.656908D-01

 Vector   84  Occ=0.000000D+00  E= 1.683454D-01

 Vector   85  Occ=0.000000D+00  E= 1.708485D-01

 Vector   86  Occ=0.000000D+00  E= 1.735481D-01

 Vector   87  Occ=0.000000D+00  E= 1.806372D-01

 Vector   88  Occ=0.000000D+00  E= 1.834190D-01

 Vector   89  Occ=0.000000D+00  E= 1.854623D-01

 Vector   90  Occ=0.000000D+00  E= 1.879471D-01

 Vector   91  Occ=0.000000D+00  E= 1.929045D-01

 Vector   92  Occ=0.000000D+00  E= 1.981315D-01

 Vector   93  Occ=0.000000D+00  E= 2.040239D-01

 Vector   94  Occ=0.000000D+00  E= 2.047991D-01

 Vector   95  Occ=0.000000D+00  E= 2.090793D-01

 Vector   96  Occ=0.000000D+00  E= 2.127170D-01

 Vector   97  Occ=0.000000D+00  E= 2.174536D-01

 Vector   98  Occ=0.000000D+00  E= 2.221676D-01

 Vector   99  Occ=0.000000D+00  E= 2.243291D-01

 Vector  100  Occ=0.000000D+00  E= 2.318849D-01

 Vector  101  Occ=0.000000D+00  E= 2.383884D-01

 Vector  102  Occ=0.000000D+00  E= 2.453865D-01

 Vector  103  Occ=0.000000D+00  E= 2.506062D-01

 Vector  104  Occ=0.000000D+00  E= 2.610601D-01

 Vector  105  Occ=0.000000D+00  E= 2.633770D-01

 Vector  106  Occ=0.000000D+00  E= 2.727599D-01

 Vector  107  Occ=0.000000D+00  E= 2.757687D-01

 Vector  108  Occ=0.000000D+00  E= 2.819614D-01

 Vector  109  Occ=0.000000D+00  E= 2.948985D-01

 Vector  110  Occ=0.000000D+00  E= 3.013001D-01

 Vector  111  Occ=0.000000D+00  E= 3.038948D-01

 Vector  112  Occ=0.000000D+00  E= 3.115626D-01

 Vector  113  Occ=0.000000D+00  E= 3.154068D-01

 Vector  114  Occ=0.000000D+00  E= 3.248729D-01

 Vector  115  Occ=0.000000D+00  E= 3.263269D-01

 Vector  116  Occ=0.000000D+00  E= 3.329674D-01

 Vector  117  Occ=0.000000D+00  E= 3.351908D-01

 Vector  118  Occ=0.000000D+00  E= 3.430183D-01

 Vector  119  Occ=0.000000D+00  E= 3.451799D-01

 Vector  120  Occ=0.000000D+00  E= 3.488826D-01

 Vector  121  Occ=0.000000D+00  E= 3.575173D-01

 Vector  122  Occ=0.000000D+00  E= 3.591908D-01

 Vector  123  Occ=0.000000D+00  E= 3.632675D-01

 Vector  124  Occ=0.000000D+00  E= 3.687446D-01

 Vector  125  Occ=0.000000D+00  E= 3.727922D-01

 Vector  126  Occ=0.000000D+00  E= 3.766466D-01

 Vector  127  Occ=0.000000D+00  E= 3.794612D-01

 Vector  128  Occ=0.000000D+00  E= 3.860908D-01

 Vector  129  Occ=0.000000D+00  E= 3.877954D-01

 Vector  130  Occ=0.000000D+00  E= 3.938693D-01

 Vector  131  Occ=0.000000D+00  E= 3.960854D-01

 Vector  132  Occ=0.000000D+00  E= 4.012262D-01

 Vector  133  Occ=0.000000D+00  E= 4.035998D-01

 Vector  134  Occ=0.000000D+00  E= 4.097655D-01

 Vector  135  Occ=0.000000D+00  E= 4.203473D-01

 Vector  136  Occ=0.000000D+00  E= 4.211169D-01

 Vector  137  Occ=0.000000D+00  E= 4.232609D-01

 Vector  138  Occ=0.000000D+00  E= 4.251511D-01

 Vector  139  Occ=0.000000D+00  E= 4.302490D-01

 Vector  140  Occ=0.000000D+00  E= 4.342164D-01

 Vector  141  Occ=0.000000D+00  E= 4.414363D-01

 Vector  142  Occ=0.000000D+00  E= 4.477976D-01

 Vector  143  Occ=0.000000D+00  E= 4.533584D-01

 Vector  144  Occ=0.000000D+00  E= 4.610485D-01

 Vector  145  Occ=0.000000D+00  E= 4.627244D-01

 Vector  146  Occ=0.000000D+00  E= 4.718635D-01

 Vector  147  Occ=0.000000D+00  E= 4.764557D-01

 Vector  148  Occ=0.000000D+00  E= 4.772928D-01

 Vector  149  Occ=0.000000D+00  E= 4.844438D-01

 Vector  150  Occ=0.000000D+00  E= 4.897953D-01

 Vector  151  Occ=0.000000D+00  E= 4.966839D-01

 Vector  152  Occ=0.000000D+00  E= 4.995599D-01

 Vector  153  Occ=0.000000D+00  E= 5.052862D-01

       Multipole analysis of the density wrt the origin
       ------------------------------------------------

     L   x y z        total         open         nuclear
     -   - - -        -----         ----         -------
     0   0 0 0     -0.000000      0.000000    108.000000

     1   1 0 0      0.662190      0.000000     -0.000000
     1   0 1 0     -2.907631      0.000000      0.000000
     1   0 0 1     -0.633999      0.000000     -0.000000

     2   2 0 0    -64.241188      0.000000    878.462916
     2   1 1 0      4.198984      0.000000     -5.833626
     2   1 0 1      7.739985      0.000000     21.282515
     2   0 2 0    -64.359584      0.000000   2196.715758
     2   0 1 1      2.725244      0.000000      6.423547

 Total times  cpu:     2676.7s     wall:     3031.2s
