 Output coordinates in angstroms (scale by  1.889725989 to convert to a.u.)

  No.       Tag          Charge          X              Y              Z
 ---- ---------------- ---------- -------------- -------------- --------------
    1 H                    1.0000    -3.25624093     2.88346766    -0.66737104
    2 C                    6.0000    -2.90004512     1.85856296    -0.74974759
    3 H                    1.0000    -3.32028963     1.39586414    -1.64137439
    4 H                    1.0000    -3.19774400     1.28564059     0.12838756
    5 C                    6.0000    -1.39482977     1.85103324    -0.85807149
    6 O                    8.0000    -0.84462443     1.30137281    -1.80356633
    7 N                    7.0000    -0.71724688     2.43624153     0.12963023
    8 H                    1.0000    -1.23885488     2.86172367     0.87799582
    9 C                    6.0000     0.75010472     2.51264339     0.17834399
   10 H                    1.0000     1.10118901     2.98653347    -0.73979871
   11 C                    6.0000     1.13945829     3.40635343     1.36286167
   12 H                    1.0000     0.80753796     2.95539701     2.29899852
   13 H                    1.0000     2.22412620     3.51981079     1.38961914
   14 H                    1.0000     0.68692036     4.39192243     1.25053101
   15 C                    6.0000     1.44808409     1.13415563     0.26324572
   16 O                    8.0000     2.64362433     1.02653263     0.00815784
   17 N                    7.0000     0.70261837     0.07713121     0.59627163
   18 H                    1.0000    -0.27718981     0.24161508     0.78704373
   19 C                    6.0000     1.13678316    -1.32040303     0.55983046
   20 H                    1.0000     2.16027712    -1.37959747     0.93430493
   21 C                    6.0000     0.21474757    -2.11139476     1.50331414
   22 H                    1.0000     0.54898863    -3.14709532     1.56211279
   23 H                    1.0000     0.26032716    -1.68471042     2.50564391
   24 C                    6.0000    -1.22508554    -2.06839501     1.02636799
   25 O                    8.0000    -1.94849127    -1.11622577     1.27020174
   26 N                    7.0000    -1.65928492    -3.05394658     0.27869694
   27 H                    1.0000    -2.60104843    -2.98642405    -0.05994771
   28 H                    1.0000    -1.01809959    -3.77209286    -0.01950650
   29 C                    6.0000     1.14151712    -1.94417142    -0.85815353
   30 O                    8.0000     1.32737723    -3.14849806    -0.99504172
   31 N                    7.0000     0.86587463    -1.19202152    -1.91633912
   32 H                    1.0000     0.86065524    -1.62390274    -2.82515393
   33 H                    1.0000     0.62822311    -0.21574395    -1.80526319

         Total SCF energy =   -867.601841614247

 Vector   98  Occ=0.000000D+00  E= 1.703560D-01

 Vector   99  Occ=0.000000D+00  E= 1.736829D-01

 Vector  100  Occ=0.000000D+00  E= 1.764301D-01

 Vector  101  Occ=0.000000D+00  E= 1.810513D-01

 Vector  102  Occ=0.000000D+00  E= 1.818497D-01

 Vector  103  Occ=0.000000D+00  E= 1.889761D-01

 Vector  104  Occ=0.000000D+00  E= 1.913105D-01

 Vector  105  Occ=0.000000D+00  E= 1.933660D-01

 Vector  106  Occ=0.000000D+00  E= 1.942839D-01

 Vector  107  Occ=0.000000D+00  E= 1.987581D-01

 Vector  108  Occ=0.000000D+00  E= 2.016445D-01

 Vector  109  Occ=0.000000D+00  E= 2.029209D-01

 Vector  110  Occ=0.000000D+00  E= 2.039585D-01

 Vector  111  Occ=0.000000D+00  E= 2.135116D-01

 Vector  112  Occ=0.000000D+00  E= 2.169035D-01

 Vector  113  Occ=0.000000D+00  E= 2.223103D-01

 Vector  114  Occ=0.000000D+00  E= 2.299566D-01

 Vector  115  Occ=0.000000D+00  E= 2.316395D-01

 Vector  116  Occ=0.000000D+00  E= 2.337486D-01

 Vector  117  Occ=0.000000D+00  E= 2.382867D-01

 Vector  118  Occ=0.000000D+00  E= 2.429518D-01

 Vector  119  Occ=0.000000D+00  E= 2.466348D-01

 Vector  120  Occ=0.000000D+00  E= 2.522753D-01

 Vector  121  Occ=0.000000D+00  E= 2.534942D-01

 Vector  122  Occ=0.000000D+00  E= 2.619915D-01

 Vector  123  Occ=0.000000D+00  E= 2.697893D-01

 Vector  124  Occ=0.000000D+00  E= 2.772017D-01

 Vector  125  Occ=0.000000D+00  E= 2.799031D-01

 Vector  126  Occ=0.000000D+00  E= 2.842843D-01

 Vector  127  Occ=0.000000D+00  E= 2.902231D-01

 Vector  128  Occ=0.000000D+00  E= 2.954456D-01

 Vector  129  Occ=0.000000D+00  E= 3.027441D-01

 Vector  130  Occ=0.000000D+00  E= 3.071509D-01

 Vector  131  Occ=0.000000D+00  E= 3.123348D-01

 Vector  132  Occ=0.000000D+00  E= 3.143313D-01

 Vector  133  Occ=0.000000D+00  E= 3.256015D-01

 Vector  134  Occ=0.000000D+00  E= 3.294944D-01

 Vector  135  Occ=0.000000D+00  E= 3.328320D-01

 Vector  136  Occ=0.000000D+00  E= 3.373857D-01

 Vector  137  Occ=0.000000D+00  E= 3.403284D-01

 Vector  138  Occ=0.000000D+00  E= 3.426918D-01

 Vector  139  Occ=0.000000D+00  E= 3.507963D-01

 Vector  140  Occ=0.000000D+00  E= 3.574793D-01

 Vector  141  Occ=0.000000D+00  E= 3.595123D-01

 Vector  142  Occ=0.000000D+00  E= 3.627826D-01

 Vector  143  Occ=0.000000D+00  E= 3.667748D-01

 Vector  144  Occ=0.000000D+00  E= 3.710309D-01

 Vector  145  Occ=0.000000D+00  E= 3.763357D-01

 Vector  146  Occ=0.000000D+00  E= 3.765414D-01

 Vector  147  Occ=0.000000D+00  E= 3.795444D-01

 Vector  148  Occ=0.000000D+00  E= 3.833120D-01

 Vector  149  Occ=0.000000D+00  E= 3.896544D-01

 Vector  150  Occ=0.000000D+00  E= 3.909286D-01

 Vector  151  Occ=0.000000D+00  E= 3.966627D-01

 Vector  152  Occ=0.000000D+00  E= 4.020233D-01

 Vector  153  Occ=0.000000D+00  E= 4.053827D-01

 Vector  154  Occ=0.000000D+00  E= 4.097361D-01

 Vector  155  Occ=0.000000D+00  E= 4.121723D-01

 Vector  156  Occ=0.000000D+00  E= 4.163991D-01

 Vector  157  Occ=0.000000D+00  E= 4.184754D-01

 Vector  158  Occ=0.000000D+00  E= 4.195888D-01

 Vector  159  Occ=0.000000D+00  E= 4.237986D-01

 Vector  160  Occ=0.000000D+00  E= 4.249668D-01

 Vector  161  Occ=0.000000D+00  E= 4.304604D-01

 Vector  162  Occ=0.000000D+00  E= 4.387679D-01

 Vector  163  Occ=0.000000D+00  E= 4.415965D-01

 Vector  164  Occ=0.000000D+00  E= 4.501790D-01

 Vector  165  Occ=0.000000D+00  E= 4.555047D-01

 Vector  166  Occ=0.000000D+00  E= 4.573180D-01

 Vector  167  Occ=0.000000D+00  E= 4.577635D-01

 Vector  168  Occ=0.000000D+00  E= 4.656390D-01

 Vector  169  Occ=0.000000D+00  E= 4.730838D-01

 Vector  170  Occ=0.000000D+00  E= 4.756199D-01

 Vector  171  Occ=0.000000D+00  E= 4.787654D-01

 Vector  172  Occ=0.000000D+00  E= 4.850639D-01

 Vector  173  Occ=0.000000D+00  E= 4.867224D-01

 Vector  174  Occ=0.000000D+00  E= 4.868211D-01

 Vector  175  Occ=0.000000D+00  E= 4.918288D-01

 Vector  176  Occ=0.000000D+00  E= 4.953767D-01

 Vector  177  Occ=0.000000D+00  E= 5.010871D-01

       Multipole analysis of the density wrt the origin
       ------------------------------------------------

     L   x y z        total         open         nuclear
     -   - - -        -----         ----         -------
     0   0 0 0      0.000000      0.000000    130.000000

     1   1 0 0     -1.759554      0.000000     -0.000000
     1   0 1 0      1.024798      0.000000      0.000000
     1   0 0 1      0.980094      0.000000     -0.000000

     2   2 0 0    -82.689747      0.000000   1082.463674
     2   1 1 0      1.508894      0.000000     -0.856616
     2   1 0 1      4.998783      0.000000     19.380500
     2   0 2 0    -66.588669      0.000000   2071.581730
     2   0 1 1      1.556253      0.000000     15.128989

 Total times  cpu:     4046.0s     wall:     4096.2s
