 Output coordinates in angstroms (scale by  1.889725989 to convert to a.u.)

  No.       Tag          Charge          X              Y              Z
 ---- ---------------- ---------- -------------- -------------- --------------
    1 H                    1.0000     2.54481992    -2.93565367     2.31423610
    2 C                    6.0000     1.81255480    -2.13788888     2.41921294
    3 H                    1.0000     1.95886799    -1.63353941     3.37384065
    4 H                    1.0000     0.80461564    -2.54753743     2.37562718
    5 C                    6.0000     1.99647588    -1.13691164     1.30375358
    6 O                    8.0000     2.24809520     0.03335878     1.55932914
    7 N                    7.0000     1.83492744    -1.59072728     0.06075420
    8 H                    1.0000     1.61387733    -2.56428955    -0.06333589
    9 C                    6.0000     2.03360589    -0.77713517    -1.14880636
   10 H                    1.0000     3.04837374    -0.37617183    -1.12609968
   11 C                    6.0000     1.91147421    -1.70671623    -2.36262385
   12 H                    1.0000     2.11345714    -1.14177706    -3.27383932
   13 H                    1.0000     2.63556988    -2.51908522    -2.28660351
   14 H                    1.0000     0.90226433    -2.11956280    -2.41951968
   15 C                    6.0000     1.08418889     0.43800378    -1.27754917
   16 O                    8.0000     1.29787011     1.29714379    -2.12555848
   17 N                    7.0000     0.04810686     0.51974602    -0.43757165
   18 H                    1.0000    -0.07766553    -0.23578757     0.21734766
   19 C                    6.0000    -0.87620352     1.65454371    -0.33415731
   20 H                    1.0000    -1.17097322     1.95508563    -1.34110636
   21 C                    6.0000    -2.13805217     1.22313459     0.43767243
   22 H                    1.0000    -1.88661583     1.05024941     1.48525368
   23 H                    1.0000    -2.85430995     2.04551114     0.39726692
   24 C                    6.0000    -2.82695040    -0.03132373    -0.12174117
   25 H                    1.0000    -3.86014913    -0.02414060     0.22761366
   26 H                    1.0000    -2.84394235     0.03129602    -1.21029022
   27 S                   16.0000    -2.09554779    -1.62152086     0.37735834
   28 C                    6.0000    -3.22488206    -2.75048668    -0.47917262
   29 H                    1.0000    -2.92640596    -3.78107337    -0.28303976
   30 H                    1.0000    -4.24201057    -2.59598564    -0.11716154
   31 H                    1.0000    -3.18919448    -2.56231614    -1.55242899
   32 C                    6.0000    -0.25516816     2.89406331     0.34103394
   33 O                    8.0000    -0.85416763     3.96254766     0.33488391
   34 N                    7.0000     0.91848845     2.78888658     0.95658006
   35 H                    1.0000     1.40273142     1.90190882     0.98777613
   36 H                    1.0000     1.30815352     3.61176550     1.38342009

         Total SCF energy =  -1175.381792611345

 Vector  113  Occ=0.000000D+00  E= 1.920902D-01

 Vector  114  Occ=0.000000D+00  E= 1.929371D-01

 Vector  115  Occ=0.000000D+00  E= 1.950208D-01

 Vector  116  Occ=0.000000D+00  E= 1.985115D-01

 Vector  117  Occ=0.000000D+00  E= 1.990815D-01

 Vector  118  Occ=0.000000D+00  E= 2.041869D-01

 Vector  119  Occ=0.000000D+00  E= 2.095193D-01

 Vector  120  Occ=0.000000D+00  E= 2.106154D-01

 Vector  121  Occ=0.000000D+00  E= 2.125969D-01

 Vector  122  Occ=0.000000D+00  E= 2.209628D-01

 Vector  123  Occ=0.000000D+00  E= 2.226611D-01

 Vector  124  Occ=0.000000D+00  E= 2.264608D-01

 Vector  125  Occ=0.000000D+00  E= 2.314535D-01

 Vector  126  Occ=0.000000D+00  E= 2.367669D-01

 Vector  127  Occ=0.000000D+00  E= 2.400852D-01

 Vector  128  Occ=0.000000D+00  E= 2.429118D-01

 Vector  129  Occ=0.000000D+00  E= 2.474584D-01

 Vector  130  Occ=0.000000D+00  E= 2.510566D-01

 Vector  131  Occ=0.000000D+00  E= 2.547340D-01

 Vector  132  Occ=0.000000D+00  E= 2.621374D-01

 Vector  133  Occ=0.000000D+00  E= 2.671557D-01

 Vector  134  Occ=0.000000D+00  E= 2.692373D-01

 Vector  135  Occ=0.000000D+00  E= 2.726690D-01

 Vector  136  Occ=0.000000D+00  E= 2.766548D-01

 Vector  137  Occ=0.000000D+00  E= 2.877387D-01

 Vector  138  Occ=0.000000D+00  E= 2.920469D-01

 Vector  139  Occ=0.000000D+00  E= 2.959531D-01

 Vector  140  Occ=0.000000D+00  E= 2.988278D-01

 Vector  141  Occ=0.000000D+00  E= 3.110056D-01

 Vector  142  Occ=0.000000D+00  E= 3.130912D-01

 Vector  143  Occ=0.000000D+00  E= 3.145861D-01

 Vector  144  Occ=0.000000D+00  E= 3.183161D-01

 Vector  145  Occ=0.000000D+00  E= 3.260969D-01

 Vector  146  Occ=0.000000D+00  E= 3.313076D-01

 Vector  147  Occ=0.000000D+00  E= 3.355292D-01

 Vector  148  Occ=0.000000D+00  E= 3.360312D-01

 Vector  149  Occ=0.000000D+00  E= 3.409212D-01

 Vector  150  Occ=0.000000D+00  E= 3.434284D-01

 Vector  151  Occ=0.000000D+00  E= 3.510225D-01

 Vector  152  Occ=0.000000D+00  E= 3.535241D-01

 Vector  153  Occ=0.000000D+00  E= 3.623951D-01

 Vector  154  Occ=0.000000D+00  E= 3.664662D-01

 Vector  155  Occ=0.000000D+00  E= 3.696279D-01

 Vector  156  Occ=0.000000D+00  E= 3.711151D-01

 Vector  157  Occ=0.000000D+00  E= 3.746770D-01

 Vector  158  Occ=0.000000D+00  E= 3.777057D-01

 Vector  159  Occ=0.000000D+00  E= 3.819147D-01

 Vector  160  Occ=0.000000D+00  E= 3.869493D-01

 Vector  161  Occ=0.000000D+00  E= 3.939516D-01

 Vector  162  Occ=0.000000D+00  E= 3.951264D-01

 Vector  163  Occ=0.000000D+00  E= 3.992472D-01

 Vector  164  Occ=0.000000D+00  E= 4.000556D-01

 Vector  165  Occ=0.000000D+00  E= 4.061570D-01

 Vector  166  Occ=0.000000D+00  E= 4.079108D-01

 Vector  167  Occ=0.000000D+00  E= 4.100679D-01

 Vector  168  Occ=0.000000D+00  E= 4.139987D-01

 Vector  169  Occ=0.000000D+00  E= 4.177577D-01

 Vector  170  Occ=0.000000D+00  E= 4.194056D-01

 Vector  171  Occ=0.000000D+00  E= 4.263904D-01

 Vector  172  Occ=0.000000D+00  E= 4.268551D-01

 Vector  173  Occ=0.000000D+00  E= 4.305642D-01

 Vector  174  Occ=0.000000D+00  E= 4.343321D-01

 Vector  175  Occ=0.000000D+00  E= 4.389569D-01

 Vector  176  Occ=0.000000D+00  E= 4.412070D-01

 Vector  177  Occ=0.000000D+00  E= 4.450685D-01

 Vector  178  Occ=0.000000D+00  E= 4.501825D-01

 Vector  179  Occ=0.000000D+00  E= 4.520551D-01

 Vector  180  Occ=0.000000D+00  E= 4.551038D-01

 Vector  181  Occ=0.000000D+00  E= 4.568465D-01

 Vector  182  Occ=0.000000D+00  E= 4.606528D-01

 Vector  183  Occ=0.000000D+00  E= 4.654752D-01

 Vector  184  Occ=0.000000D+00  E= 4.689490D-01

 Vector  185  Occ=0.000000D+00  E= 4.716219D-01

 Vector  186  Occ=0.000000D+00  E= 4.751278D-01

 Vector  187  Occ=0.000000D+00  E= 4.784613D-01

 Vector  188  Occ=0.000000D+00  E= 4.806983D-01

 Vector  189  Occ=0.000000D+00  E= 4.847901D-01

 Vector  190  Occ=0.000000D+00  E= 4.905194D-01

 Vector  191  Occ=0.000000D+00  E= 4.924374D-01

 Vector  192  Occ=0.000000D+00  E= 5.052581D-01

       Multipole analysis of the density wrt the origin
       ------------------------------------------------

     L   x y z        total         open         nuclear
     -   - - -        -----         ----         -------
     0   0 0 0      0.000000      0.000000    140.000000

     1   1 0 0     -0.436222      0.000000     -0.000000
     1   0 1 0     -3.854942      0.000000      0.000000
     1   0 0 1      0.287473      0.000000      0.000000

     2   2 0 0    -75.178294      0.000000   1825.709872
     2   1 1 0     -0.224568      0.000000     -1.886602
     2   1 0 1      3.736968      0.000000      9.552224
     2   0 2 0    -90.917611      0.000000   1870.346431
     2   0 1 1      4.366444      0.000000     15.513211

 Total times  cpu:     4654.9s     wall:     4866.6s
