 Output coordinates in angstroms (scale by  1.889725989 to convert to a.u.)

  No.       Tag          Charge          X              Y              Z
 ---- ---------------- ---------- -------------- -------------- --------------
    1 H                    1.0000    -0.84540995     4.37564227    -1.93487603
    2 C                    6.0000    -0.73707354     4.66709301    -0.89275431
    3 H                    1.0000    -1.71517132     4.73837900    -0.42081783
    4 H                    1.0000    -0.23204294     5.63025530    -0.83254211
    5 C                    6.0000     0.09348263     3.63479108    -0.16668876
    6 O                    8.0000     1.14859113     3.95598393     0.36327182
    7 N                    7.0000    -0.38272757     2.39157739    -0.15157109
    8 H                    1.0000    -1.24279834     2.19683694    -0.64129388
    9 C                    6.0000     0.28684747     1.25609184     0.48346580
   10 H                    1.0000     1.36665491     1.39908206     0.41167661
   11 C                    6.0000    -0.10106125     1.21526566     1.96869678
   12 H                    1.0000     0.18883293     2.15094374     2.45120264
   13 H                    1.0000    -1.17878352     1.07853196     2.07066059
   14 H                    1.0000     0.41294526     0.39314425     2.46722229
   15 C                    6.0000    -0.06541960    -0.06408443    -0.22539985
   16 O                    8.0000    -1.08702700    -0.15854380    -0.90586495
   17 N                    7.0000     0.76657633    -1.09428755    -0.04400165
   18 H                    1.0000     1.57425722    -0.95074884     0.54121816
   19 C                    6.0000     0.60686807    -2.42741310    -0.63732328
   20 H                    1.0000     0.29097634    -2.29688815    -1.67461671
   21 C                    6.0000     1.98424404    -3.10608124    -0.65551659
   22 H                    1.0000     2.33470575    -3.26942792     0.36544739
   23 H                    1.0000     1.91022784    -4.07111364    -1.15967934
   24 H                    1.0000     2.70204431    -2.48517739    -1.19257170
   25 C                    6.0000    -0.48980584    -3.28321958     0.04739535
   26 O                    8.0000    -0.25576317    -4.40793224     0.47367279
   27 N                    7.0000    -1.69656856    -2.75715475     0.20550774
   28 H                    1.0000    -1.88574762    -1.83222423    -0.15762421
   29 H                    1.0000    -2.40655209    -3.30890354     0.65716100

         Total SCF energy =   -699.783164173855

 Vector   75  Occ=0.000000D+00  E= 1.366908D-01

 Vector   76  Occ=0.000000D+00  E= 1.418440D-01

 Vector   77  Occ=0.000000D+00  E= 1.488485D-01

 Vector   78  Occ=0.000000D+00  E= 1.494711D-01

 Vector   79  Occ=0.000000D+00  E= 1.513306D-01

 Vector   80  Occ=0.000000D+00  E= 1.541044D-01

 Vector   81  Occ=0.000000D+00  E= 1.563838D-01

 Vector   82  Occ=0.000000D+00  E= 1.612756D-01

 Vector   83  Occ=0.000000D+00  E= 1.653363D-01

 Vector   84  Occ=0.000000D+00  E= 1.683110D-01

 Vector   85  Occ=0.000000D+00  E= 1.742975D-01

 Vector   86  Occ=0.000000D+00  E= 1.784580D-01

 Vector   87  Occ=0.000000D+00  E= 1.799639D-01

 Vector   88  Occ=0.000000D+00  E= 1.816238D-01

 Vector   89  Occ=0.000000D+00  E= 1.833034D-01

 Vector   90  Occ=0.000000D+00  E= 1.849724D-01

 Vector   91  Occ=0.000000D+00  E= 1.897183D-01

 Vector   92  Occ=0.000000D+00  E= 1.924782D-01

 Vector   93  Occ=0.000000D+00  E= 1.970346D-01

 Vector   94  Occ=0.000000D+00  E= 1.992363D-01

 Vector   95  Occ=0.000000D+00  E= 2.074529D-01

 Vector   96  Occ=0.000000D+00  E= 2.088211D-01

 Vector   97  Occ=0.000000D+00  E= 2.117211D-01

 Vector   98  Occ=0.000000D+00  E= 2.242337D-01

 Vector   99  Occ=0.000000D+00  E= 2.271735D-01

 Vector  100  Occ=0.000000D+00  E= 2.303346D-01

 Vector  101  Occ=0.000000D+00  E= 2.397376D-01

 Vector  102  Occ=0.000000D+00  E= 2.412346D-01

 Vector  103  Occ=0.000000D+00  E= 2.475415D-01

 Vector  104  Occ=0.000000D+00  E= 2.497140D-01

 Vector  105  Occ=0.000000D+00  E= 2.577131D-01

 Vector  106  Occ=0.000000D+00  E= 2.644678D-01

 Vector  107  Occ=0.000000D+00  E= 2.701753D-01

 Vector  108  Occ=0.000000D+00  E= 2.760288D-01

 Vector  109  Occ=0.000000D+00  E= 2.854218D-01

 Vector  110  Occ=0.000000D+00  E= 2.956293D-01

 Vector  111  Occ=0.000000D+00  E= 2.987828D-01

 Vector  112  Occ=0.000000D+00  E= 3.076799D-01

 Vector  113  Occ=0.000000D+00  E= 3.143214D-01

 Vector  114  Occ=0.000000D+00  E= 3.147469D-01

 Vector  115  Occ=0.000000D+00  E= 3.174645D-01

 Vector  116  Occ=0.000000D+00  E= 3.237067D-01

 Vector  117  Occ=0.000000D+00  E= 3.286058D-01

 Vector  118  Occ=0.000000D+00  E= 3.350971D-01

 Vector  119  Occ=0.000000D+00  E= 3.383285D-01

 Vector  120  Occ=0.000000D+00  E= 3.398890D-01

 Vector  121  Occ=0.000000D+00  E= 3.504910D-01

 Vector  122  Occ=0.000000D+00  E= 3.551533D-01

 Vector  123  Occ=0.000000D+00  E= 3.582424D-01

 Vector  124  Occ=0.000000D+00  E= 3.622262D-01

 Vector  125  Occ=0.000000D+00  E= 3.674824D-01

 Vector  126  Occ=0.000000D+00  E= 3.708671D-01

 Vector  127  Occ=0.000000D+00  E= 3.758416D-01

 Vector  128  Occ=0.000000D+00  E= 3.791074D-01

 Vector  129  Occ=0.000000D+00  E= 3.829685D-01

 Vector  130  Occ=0.000000D+00  E= 3.845209D-01

 Vector  131  Occ=0.000000D+00  E= 3.953209D-01

 Vector  132  Occ=0.000000D+00  E= 3.972554D-01

 Vector  133  Occ=0.000000D+00  E= 3.987081D-01

 Vector  134  Occ=0.000000D+00  E= 4.044552D-01

 Vector  135  Occ=0.000000D+00  E= 4.108496D-01

 Vector  136  Occ=0.000000D+00  E= 4.135109D-01

 Vector  137  Occ=0.000000D+00  E= 4.193186D-01

 Vector  138  Occ=0.000000D+00  E= 4.247072D-01

 Vector  139  Occ=0.000000D+00  E= 4.302187D-01

 Vector  140  Occ=0.000000D+00  E= 4.341840D-01

 Vector  141  Occ=0.000000D+00  E= 4.396206D-01

 Vector  142  Occ=0.000000D+00  E= 4.445473D-01

 Vector  143  Occ=0.000000D+00  E= 4.485743D-01

 Vector  144  Occ=0.000000D+00  E= 4.528758D-01

 Vector  145  Occ=0.000000D+00  E= 4.610900D-01

 Vector  146  Occ=0.000000D+00  E= 4.634456D-01

 Vector  147  Occ=0.000000D+00  E= 4.704074D-01

 Vector  148  Occ=0.000000D+00  E= 4.744707D-01

 Vector  149  Occ=0.000000D+00  E= 4.765656D-01

 Vector  150  Occ=0.000000D+00  E= 4.838252D-01

 Vector  151  Occ=0.000000D+00  E= 4.889213D-01

 Vector  152  Occ=0.000000D+00  E= 4.911907D-01

 Vector  153  Occ=0.000000D+00  E= 4.935117D-01

 Vector  154  Occ=0.000000D+00  E= 5.005577D-01

       Multipole analysis of the density wrt the origin
       ------------------------------------------------

     L   x y z        total         open         nuclear
     -   - - -        -----         ----         -------
     0   0 0 0     -0.000000      0.000000    108.000000

     1   1 0 0     -0.448876      0.000000      0.000000
     1   0 1 0      0.517972      0.000000      0.000000
     1   0 0 1     -0.268666      0.000000      0.000000

     2   2 0 0    -59.408047      0.000000    407.146696
     2   1 1 0     -9.819311      0.000000    -48.684456
     2   1 0 1     -2.308411      0.000000     -4.498332
     2   0 2 0    -84.451083      0.000000   3244.859416
     2   0 1 1     -0.362085      0.000000      0.795528

 Total times  cpu:     2138.4s     wall:     2319.5s
