 Output coordinates in angstroms (scale by  1.889725989 to convert to a.u.)

  No.       Tag          Charge          X              Y              Z
 ---- ---------------- ---------- -------------- -------------- --------------
    1 H                    1.0000    -0.91342544    -5.24640633     0.59367215
    2 C                    6.0000    -0.43877081    -4.49621935     1.22399071
    3 H                    1.0000     0.48821247    -4.89701846     1.63271319
    4 H                    1.0000    -1.10574341    -4.21743055     2.03802655
    5 C                    6.0000    -0.12349074    -3.27336242     0.39558658
    6 O                    8.0000     1.03514758    -2.89041742     0.28355372
    7 N                    7.0000    -1.15781106    -2.66731238    -0.18456757
    8 H                    1.0000    -2.08013912    -3.02985424    -0.00991546
    9 C                    6.0000    -1.05340501    -1.41486375    -0.93258214
   10 H                    1.0000    -0.11245860    -1.42058962    -1.48839332
   11 C                    6.0000    -2.20099745    -1.34751670    -1.94821592
   12 H                    1.0000    -3.16001963    -1.33359296    -1.42766182
   13 H                    1.0000    -2.10827394    -0.44079919    -2.54763873
   14 H                    1.0000    -2.16029649    -2.21305721    -2.61095649
   15 C                    6.0000    -1.04659878    -0.18384963    -0.00460751
   16 O                    8.0000    -1.75219302    -0.14057772     1.00256344
   17 N                    7.0000    -0.27679314     0.84070835    -0.37422516
   18 H                    1.0000     0.30129901     0.69960412    -1.19681805
   19 C                    6.0000     0.01130141     2.04609303     0.41634127
   20 H                    1.0000     0.08831550     1.75011407     1.46275576
   21 C                    6.0000     1.38630833     2.62168800    -0.00736550
   22 H                    1.0000     1.38152643     2.81154225    -1.08156590
   23 H                    1.0000     1.53642068     3.57630888     0.49742580
   24 C                    6.0000     2.59916813     1.73390001     0.34892175
   25 H                    1.0000     3.51202251     2.24007228     0.03610469
   26 H                    1.0000     2.63785711     1.62383337     1.43362194
   27 C                    6.0000     2.57930022     0.34901508    -0.29667873
   28 O                    8.0000     2.23137602     0.17745909    -1.45478377
   29 N                    7.0000     2.85499399    -0.69317886     0.45278358
   30 H                    1.0000     2.57885701    -1.59708605     0.08140486
   31 H                    1.0000     3.09099340    -0.58769907     1.41984733
   32 C                    6.0000    -1.12721465     3.09242775     0.36036043
   33 O                    8.0000    -0.90276883     4.28343508     0.18512454
   34 N                    7.0000    -2.37848014     2.66907280     0.47857736
   35 H                    1.0000    -2.55312149     1.68925997     0.65843904
   36 H                    1.0000    -3.12149148     3.34470509     0.43479192

         Total SCF energy =   -906.636882190573

 Vector  109  Occ=0.000000D+00  E= 1.846483D-01

 Vector  110  Occ=0.000000D+00  E= 1.858250D-01

 Vector  111  Occ=0.000000D+00  E= 1.911573D-01

 Vector  112  Occ=0.000000D+00  E= 1.950831D-01

 Vector  113  Occ=0.000000D+00  E= 1.978604D-01

 Vector  114  Occ=0.000000D+00  E= 2.015673D-01

 Vector  115  Occ=0.000000D+00  E= 2.048468D-01

 Vector  116  Occ=0.000000D+00  E= 2.071664D-01

 Vector  117  Occ=0.000000D+00  E= 2.101199D-01

 Vector  118  Occ=0.000000D+00  E= 2.128351D-01

 Vector  119  Occ=0.000000D+00  E= 2.155866D-01

 Vector  120  Occ=0.000000D+00  E= 2.190327D-01

 Vector  121  Occ=0.000000D+00  E= 2.246032D-01

 Vector  122  Occ=0.000000D+00  E= 2.268865D-01

 Vector  123  Occ=0.000000D+00  E= 2.337089D-01

 Vector  124  Occ=0.000000D+00  E= 2.412344D-01

 Vector  125  Occ=0.000000D+00  E= 2.422623D-01

 Vector  126  Occ=0.000000D+00  E= 2.457243D-01

 Vector  127  Occ=0.000000D+00  E= 2.533426D-01

 Vector  128  Occ=0.000000D+00  E= 2.563001D-01

 Vector  129  Occ=0.000000D+00  E= 2.604617D-01

 Vector  130  Occ=0.000000D+00  E= 2.686731D-01

 Vector  131  Occ=0.000000D+00  E= 2.749894D-01

 Vector  132  Occ=0.000000D+00  E= 2.758955D-01

 Vector  133  Occ=0.000000D+00  E= 2.834796D-01

 Vector  134  Occ=0.000000D+00  E= 2.840963D-01

 Vector  135  Occ=0.000000D+00  E= 2.953828D-01

 Vector  136  Occ=0.000000D+00  E= 3.022105D-01

 Vector  137  Occ=0.000000D+00  E= 3.053209D-01

 Vector  138  Occ=0.000000D+00  E= 3.159366D-01

 Vector  139  Occ=0.000000D+00  E= 3.168974D-01

 Vector  140  Occ=0.000000D+00  E= 3.243596D-01

 Vector  141  Occ=0.000000D+00  E= 3.289298D-01

 Vector  142  Occ=0.000000D+00  E= 3.305126D-01

 Vector  143  Occ=0.000000D+00  E= 3.364879D-01

 Vector  144  Occ=0.000000D+00  E= 3.423814D-01

 Vector  145  Occ=0.000000D+00  E= 3.431893D-01

 Vector  146  Occ=0.000000D+00  E= 3.485219D-01

 Vector  147  Occ=0.000000D+00  E= 3.518392D-01

 Vector  148  Occ=0.000000D+00  E= 3.560605D-01

 Vector  149  Occ=0.000000D+00  E= 3.573921D-01

 Vector  150  Occ=0.000000D+00  E= 3.612474D-01

 Vector  151  Occ=0.000000D+00  E= 3.639171D-01

 Vector  152  Occ=0.000000D+00  E= 3.693541D-01

 Vector  153  Occ=0.000000D+00  E= 3.710389D-01

 Vector  154  Occ=0.000000D+00  E= 3.736728D-01

 Vector  155  Occ=0.000000D+00  E= 3.749672D-01

 Vector  156  Occ=0.000000D+00  E= 3.831850D-01

 Vector  157  Occ=0.000000D+00  E= 3.874439D-01

 Vector  158  Occ=0.000000D+00  E= 3.906309D-01

 Vector  159  Occ=0.000000D+00  E= 3.937194D-01

 Vector  160  Occ=0.000000D+00  E= 3.976369D-01

 Vector  161  Occ=0.000000D+00  E= 3.988692D-01

 Vector  162  Occ=0.000000D+00  E= 4.019745D-01

 Vector  163  Occ=0.000000D+00  E= 4.054365D-01

 Vector  164  Occ=0.000000D+00  E= 4.092802D-01

 Vector  165  Occ=0.000000D+00  E= 4.136501D-01

 Vector  166  Occ=0.000000D+00  E= 4.149033D-01

 Vector  167  Occ=0.000000D+00  E= 4.185467D-01

 Vector  168  Occ=0.000000D+00  E= 4.227560D-01

 Vector  169  Occ=0.000000D+00  E= 4.262623D-01

 Vector  170  Occ=0.000000D+00  E= 4.279585D-01

 Vector  171  Occ=0.000000D+00  E= 4.311621D-01

 Vector  172  Occ=0.000000D+00  E= 4.338449D-01

 Vector  173  Occ=0.000000D+00  E= 4.384130D-01

 Vector  174  Occ=0.000000D+00  E= 4.427291D-01

 Vector  175  Occ=0.000000D+00  E= 4.468003D-01

 Vector  176  Occ=0.000000D+00  E= 4.520699D-01

 Vector  177  Occ=0.000000D+00  E= 4.549574D-01

 Vector  178  Occ=0.000000D+00  E= 4.570694D-01

 Vector  179  Occ=0.000000D+00  E= 4.608987D-01

 Vector  180  Occ=0.000000D+00  E= 4.662581D-01

 Vector  181  Occ=0.000000D+00  E= 4.719741D-01

 Vector  182  Occ=0.000000D+00  E= 4.731210D-01

 Vector  183  Occ=0.000000D+00  E= 4.762555D-01

 Vector  184  Occ=0.000000D+00  E= 4.823380D-01

 Vector  185  Occ=0.000000D+00  E= 4.910960D-01

 Vector  186  Occ=0.000000D+00  E= 4.931394D-01

 Vector  187  Occ=0.000000D+00  E= 4.952081D-01

 Vector  188  Occ=0.000000D+00  E= 5.020917D-01

       Multipole analysis of the density wrt the origin
       ------------------------------------------------

     L   x y z        total         open         nuclear
     -   - - -        -----         ----         -------
     0   0 0 0     -0.000000      0.000000    138.000000

     1   1 0 0     -0.665233      0.000000     -0.000000
     1   0 1 0     -1.906992      0.000000      0.000000
     1   0 0 1      0.575491      0.000000      0.000000

     2   2 0 0    -73.504613      0.000000   1467.965194
     2   1 1 0      9.881040      0.000000     43.739735
     2   1 0 1      9.919823      0.000000     32.231479
     2   0 2 0    -86.683377      0.000000   2890.451622
     2   0 1 1     -0.090675      0.000000     -7.595910

 Total times  cpu:     5708.0s     wall:     5881.4s
