 Output coordinates in angstroms (scale by  1.889725989 to convert to a.u.)

  No.       Tag          Charge          X              Y              Z
 ---- ---------------- ---------- -------------- -------------- --------------
    1 H                    1.0000     2.91273174    -4.81645651    -0.36792493
    2 C                    6.0000     2.07055766    -5.42986957    -0.05357920
    3 H                    1.0000     2.13920603    -5.64175286     1.01146440
    4 H                    1.0000     2.07014899    -6.36471527    -0.61350005
    5 C                    6.0000     0.78177791    -4.69233202    -0.33446018
    6 O                    8.0000    -0.04998468    -5.17628730    -1.08958221
    7 N                    7.0000     0.62551925    -3.51853567     0.27298888
    8 H                    1.0000     1.37435984    -3.16966614     0.85241861
    9 C                    6.0000    -0.53741340    -2.64511345     0.11395971
   10 H                    1.0000    -0.92443318    -2.74993628    -0.90084562
   11 C                    6.0000    -1.62945838    -3.08775184     1.09985778
   12 H                    1.0000    -2.51829151    -2.46705041     0.97403496
   13 H                    1.0000    -1.89967358    -4.12754048     0.90816704
   14 H                    1.0000    -1.26813157    -2.99229484     2.12431466
   15 C                    6.0000    -0.15216000    -1.16853200     0.32374070
   16 O                    8.0000     0.89318820    -0.86682978     0.90082900
   17 N                    7.0000    -1.00375028    -0.24594822    -0.13443738
   18 H                    1.0000    -1.87077361    -0.55044035    -0.55594787
   19 C                    6.0000    -0.84289566     1.20320632     0.04318841
   20 H                    1.0000    -0.42786748     1.38702000     1.03617690
   21 C                    6.0000     0.14851936     1.74996940    -1.00200266
   22 H                    1.0000     0.86639216     0.97219154    -1.26789218
   23 H                    1.0000    -0.38762560     2.02526978    -1.91094946
   24 C                    6.0000     0.93499915     2.93600833    -0.50402656
   25 N                    7.0000     0.45634399     4.24132492    -0.37469039
   26 C                    6.0000     1.46740872     4.95687364     0.13776268
   27 H                    1.0000     1.42058890     6.01767340     0.35237347
   28 N                    7.0000     2.53847561     4.17290509     0.35009969
   29 H                    1.0000     3.42073880     4.47706857     0.73498180
   30 C                    6.0000     2.21846353     2.89199527    -0.04194536
   31 H                    1.0000     2.84315003     2.00989691     0.01208472
   32 C                    6.0000    -2.21051066     1.90789945    -0.02375040
   33 O                    8.0000    -3.22632582     1.27826308    -0.29908220
   34 N                    7.0000    -2.27299640     3.20514661     0.23158143
   35 H                    1.0000    -3.16777284     3.66115255     0.17836763
   36 H                    1.0000    -1.41864336     3.73004213     0.36409397

         Total SCF energy =   -923.476010652140

 Vector  118  Occ=0.000000D+00  E= 2.028298D-01

 Vector  119  Occ=0.000000D+00  E= 2.042568D-01

 Vector  120  Occ=0.000000D+00  E= 2.064144D-01

 Vector  121  Occ=0.000000D+00  E= 2.106532D-01

 Vector  122  Occ=0.000000D+00  E= 2.125799D-01

 Vector  123  Occ=0.000000D+00  E= 2.141731D-01

 Vector  124  Occ=0.000000D+00  E= 2.197992D-01

 Vector  125  Occ=0.000000D+00  E= 2.213119D-01

 Vector  126  Occ=0.000000D+00  E= 2.257247D-01

 Vector  127  Occ=0.000000D+00  E= 2.330524D-01

 Vector  128  Occ=0.000000D+00  E= 2.349754D-01

 Vector  129  Occ=0.000000D+00  E= 2.407327D-01

 Vector  130  Occ=0.000000D+00  E= 2.474817D-01

 Vector  131  Occ=0.000000D+00  E= 2.497218D-01

 Vector  132  Occ=0.000000D+00  E= 2.516995D-01

 Vector  133  Occ=0.000000D+00  E= 2.548239D-01

 Vector  134  Occ=0.000000D+00  E= 2.592006D-01

 Vector  135  Occ=0.000000D+00  E= 2.655762D-01

 Vector  136  Occ=0.000000D+00  E= 2.706463D-01

 Vector  137  Occ=0.000000D+00  E= 2.733665D-01

 Vector  138  Occ=0.000000D+00  E= 2.771285D-01

 Vector  139  Occ=0.000000D+00  E= 2.836417D-01

 Vector  140  Occ=0.000000D+00  E= 2.859089D-01

 Vector  141  Occ=0.000000D+00  E= 2.942932D-01

 Vector  142  Occ=0.000000D+00  E= 2.985560D-01

 Vector  143  Occ=0.000000D+00  E= 3.034386D-01

 Vector  144  Occ=0.000000D+00  E= 3.076294D-01

 Vector  145  Occ=0.000000D+00  E= 3.092690D-01

 Vector  146  Occ=0.000000D+00  E= 3.149503D-01

 Vector  147  Occ=0.000000D+00  E= 3.181374D-01

 Vector  148  Occ=0.000000D+00  E= 3.208184D-01

 Vector  149  Occ=0.000000D+00  E= 3.234899D-01

 Vector  150  Occ=0.000000D+00  E= 3.317231D-01

 Vector  151  Occ=0.000000D+00  E= 3.361577D-01

 Vector  152  Occ=0.000000D+00  E= 3.394691D-01

 Vector  153  Occ=0.000000D+00  E= 3.432201D-01

 Vector  154  Occ=0.000000D+00  E= 3.483799D-01

 Vector  155  Occ=0.000000D+00  E= 3.531281D-01

 Vector  156  Occ=0.000000D+00  E= 3.558710D-01

 Vector  157  Occ=0.000000D+00  E= 3.591953D-01

 Vector  158  Occ=0.000000D+00  E= 3.627663D-01

 Vector  159  Occ=0.000000D+00  E= 3.645440D-01

 Vector  160  Occ=0.000000D+00  E= 3.688636D-01

 Vector  161  Occ=0.000000D+00  E= 3.724428D-01

 Vector  162  Occ=0.000000D+00  E= 3.789425D-01

 Vector  163  Occ=0.000000D+00  E= 3.826165D-01

 Vector  164  Occ=0.000000D+00  E= 3.843298D-01

 Vector  165  Occ=0.000000D+00  E= 3.867870D-01

 Vector  166  Occ=0.000000D+00  E= 3.882949D-01

 Vector  167  Occ=0.000000D+00  E= 3.916571D-01

 Vector  168  Occ=0.000000D+00  E= 3.932821D-01

 Vector  169  Occ=0.000000D+00  E= 3.956794D-01

 Vector  170  Occ=0.000000D+00  E= 4.013298D-01

 Vector  171  Occ=0.000000D+00  E= 4.064888D-01

 Vector  172  Occ=0.000000D+00  E= 4.100794D-01

 Vector  173  Occ=0.000000D+00  E= 4.140455D-01

 Vector  174  Occ=0.000000D+00  E= 4.236389D-01

 Vector  175  Occ=0.000000D+00  E= 4.249862D-01

 Vector  176  Occ=0.000000D+00  E= 4.267841D-01

 Vector  177  Occ=0.000000D+00  E= 4.274497D-01

 Vector  178  Occ=0.000000D+00  E= 4.326325D-01

 Vector  179  Occ=0.000000D+00  E= 4.338518D-01

 Vector  180  Occ=0.000000D+00  E= 4.405555D-01

 Vector  181  Occ=0.000000D+00  E= 4.431791D-01

 Vector  182  Occ=0.000000D+00  E= 4.457271D-01

 Vector  183  Occ=0.000000D+00  E= 4.518642D-01

 Vector  184  Occ=0.000000D+00  E= 4.571350D-01

 Vector  185  Occ=0.000000D+00  E= 4.610687D-01

 Vector  186  Occ=0.000000D+00  E= 4.651376D-01

 Vector  187  Occ=0.000000D+00  E= 4.674740D-01

 Vector  188  Occ=0.000000D+00  E= 4.707861D-01

 Vector  189  Occ=0.000000D+00  E= 4.720923D-01

 Vector  190  Occ=0.000000D+00  E= 4.793023D-01

 Vector  191  Occ=0.000000D+00  E= 4.836233D-01

 Vector  192  Occ=0.000000D+00  E= 4.896026D-01

 Vector  193  Occ=0.000000D+00  E= 4.919776D-01

 Vector  194  Occ=0.000000D+00  E= 4.939646D-01

 Vector  195  Occ=0.000000D+00  E= 4.950886D-01

 Vector  196  Occ=0.000000D+00  E= 4.966945D-01

 Vector  197  Occ=0.000000D+00  E= 5.028678D-01

       Multipole analysis of the density wrt the origin
       ------------------------------------------------

     L   x y z        total         open         nuclear
     -   - - -        -----         ----         -------
     0   0 0 0     -0.000000      0.000000    142.000000

     1   1 0 0      2.221546      0.000000     -0.000000
     1   0 1 0      2.383325      0.000000      0.000000
     1   0 0 1      1.115764      0.000000      0.000000

     2   2 0 0    -79.753644      0.000000   1360.148254
     2   1 1 0      4.555458      0.000000    -18.056778
     2   1 0 1     -0.264517      0.000000     -4.955243
     2   0 2 0    -77.068126      0.000000   5695.730017
     2   0 1 1     -2.129706      0.000000    -15.493258

 Total times  cpu:     5038.5s     wall:     5392.9s
