 Output coordinates in angstroms (scale by  1.889725989 to convert to a.u.)

  No.       Tag          Charge          X              Y              Z
 ---- ---------------- ---------- -------------- -------------- --------------
    1 H                    1.0000    -3.11658986    -3.29743252    -0.95532100
    2 C                    6.0000    -2.07473473    -3.52627766    -1.17635896
    3 H                    1.0000    -1.82530715    -3.16276785    -2.17114763
    4 H                    1.0000    -1.91747519    -4.60185030    -1.12044893
    5 C                    6.0000    -1.19839718    -2.83824457    -0.15652173
    6 O                    8.0000    -1.69845717    -2.15770353     0.72764053
    7 N                    7.0000     0.11634390    -3.00981168    -0.28253608
    8 H                    1.0000     0.45227483    -3.57540682    -1.04384847
    9 C                    6.0000     1.11450097    -2.38845560     0.59204558
   10 H                    1.0000     0.76023223    -2.45548210     1.62199078
   11 C                    6.0000     2.41243135    -3.20370340     0.48921676
   12 H                    1.0000     2.22573964    -4.23904787     0.77574602
   13 H                    1.0000     2.79752020    -3.17084245    -0.53109336
   14 H                    1.0000     3.16106755    -2.78107918     1.16115099
   15 C                    6.0000     1.30801175    -0.88569957     0.27793111
   16 O                    8.0000     2.33123466    -0.47896393    -0.27042918
   17 N                    7.0000     0.30637728    -0.06052936     0.59748160
   18 H                    1.0000    -0.53186016    -0.46484231     1.00847918
   19 C                    6.0000     0.28730895     1.38347643     0.32015747
   20 H                    1.0000     1.32010681     1.72868364     0.33772348
   21 C                    6.0000    -0.27639044     1.63757445    -1.10207429
   22 H                    1.0000     0.31062716     1.03948057    -1.80161846
   23 C                    6.0000    -1.74384140     1.18822014    -1.23787341
   24 H                    1.0000    -1.84650446     0.13790026    -0.96768194
   25 H                    1.0000    -2.38789953     1.78020052    -0.58616232
   26 H                    1.0000    -2.07658661     1.30956933    -2.26918714
   27 C                    6.0000    -0.18118248     3.10734852    -1.56690289
   28 H                    1.0000    -0.61354680     3.18227527    -2.56612312
   29 H                    1.0000    -0.76532098     3.75069162    -0.90822703
   30 C                    6.0000     1.25640744     3.63723250    -1.64919615
   31 H                    1.0000     1.85776321     2.98108178    -2.27956070
   32 H                    1.0000     1.24623050     4.63681266    -2.08501255
   33 H                    1.0000     1.70081315     3.69563551    -0.65639323
   34 C                    6.0000    -0.46160811     2.15098172     1.42237562
   35 O                    8.0000    -1.41186903     1.65737985     2.01479050
   36 N                    7.0000    -0.04754378     3.37299216     1.72628222
   37 H                    1.0000    -0.53666341     3.86874143     2.45220002
   38 H                    1.0000     0.73683267     3.77870416     1.24313177

         Total SCF energy =   -816.888897423950

 Vector  108  Occ=0.000000D+00  E= 1.889970D-01

 Vector  109  Occ=0.000000D+00  E= 1.902327D-01

 Vector  110  Occ=0.000000D+00  E= 1.905162D-01

 Vector  111  Occ=0.000000D+00  E= 1.963608D-01

 Vector  112  Occ=0.000000D+00  E= 1.994686D-01

 Vector  113  Occ=0.000000D+00  E= 2.016906D-01

 Vector  114  Occ=0.000000D+00  E= 2.056578D-01

 Vector  115  Occ=0.000000D+00  E= 2.089322D-01

 Vector  116  Occ=0.000000D+00  E= 2.119335D-01

 Vector  117  Occ=0.000000D+00  E= 2.132750D-01

 Vector  118  Occ=0.000000D+00  E= 2.190676D-01

 Vector  119  Occ=0.000000D+00  E= 2.206846D-01

 Vector  120  Occ=0.000000D+00  E= 2.294077D-01

 Vector  121  Occ=0.000000D+00  E= 2.323920D-01

 Vector  122  Occ=0.000000D+00  E= 2.351311D-01

 Vector  123  Occ=0.000000D+00  E= 2.381905D-01

 Vector  124  Occ=0.000000D+00  E= 2.393100D-01

 Vector  125  Occ=0.000000D+00  E= 2.457210D-01

 Vector  126  Occ=0.000000D+00  E= 2.465919D-01

 Vector  127  Occ=0.000000D+00  E= 2.495062D-01

 Vector  128  Occ=0.000000D+00  E= 2.588070D-01

 Vector  129  Occ=0.000000D+00  E= 2.675354D-01

 Vector  130  Occ=0.000000D+00  E= 2.700581D-01

 Vector  131  Occ=0.000000D+00  E= 2.727471D-01

 Vector  132  Occ=0.000000D+00  E= 2.811035D-01

 Vector  133  Occ=0.000000D+00  E= 2.948165D-01

 Vector  134  Occ=0.000000D+00  E= 2.982975D-01

 Vector  135  Occ=0.000000D+00  E= 2.999634D-01

 Vector  136  Occ=0.000000D+00  E= 3.048955D-01

 Vector  137  Occ=0.000000D+00  E= 3.080782D-01

 Vector  138  Occ=0.000000D+00  E= 3.159369D-01

 Vector  139  Occ=0.000000D+00  E= 3.193925D-01

 Vector  140  Occ=0.000000D+00  E= 3.272123D-01

 Vector  141  Occ=0.000000D+00  E= 3.322629D-01

 Vector  142  Occ=0.000000D+00  E= 3.382912D-01

 Vector  143  Occ=0.000000D+00  E= 3.419262D-01

 Vector  144  Occ=0.000000D+00  E= 3.444458D-01

 Vector  145  Occ=0.000000D+00  E= 3.525798D-01

 Vector  146  Occ=0.000000D+00  E= 3.550610D-01

 Vector  147  Occ=0.000000D+00  E= 3.605927D-01

 Vector  148  Occ=0.000000D+00  E= 3.624319D-01

 Vector  149  Occ=0.000000D+00  E= 3.647029D-01

 Vector  150  Occ=0.000000D+00  E= 3.667153D-01

 Vector  151  Occ=0.000000D+00  E= 3.691466D-01

 Vector  152  Occ=0.000000D+00  E= 3.713850D-01

 Vector  153  Occ=0.000000D+00  E= 3.741437D-01

 Vector  154  Occ=0.000000D+00  E= 3.837481D-01

 Vector  155  Occ=0.000000D+00  E= 3.860526D-01

 Vector  156  Occ=0.000000D+00  E= 3.895209D-01

 Vector  157  Occ=0.000000D+00  E= 3.957212D-01

 Vector  158  Occ=0.000000D+00  E= 3.969144D-01

 Vector  159  Occ=0.000000D+00  E= 4.004453D-01

 Vector  160  Occ=0.000000D+00  E= 4.011899D-01

 Vector  161  Occ=0.000000D+00  E= 4.051675D-01

 Vector  162  Occ=0.000000D+00  E= 4.077824D-01

 Vector  163  Occ=0.000000D+00  E= 4.109264D-01

 Vector  164  Occ=0.000000D+00  E= 4.132894D-01

 Vector  165  Occ=0.000000D+00  E= 4.187704D-01

 Vector  166  Occ=0.000000D+00  E= 4.221080D-01

 Vector  167  Occ=0.000000D+00  E= 4.270247D-01

 Vector  168  Occ=0.000000D+00  E= 4.289053D-01

 Vector  169  Occ=0.000000D+00  E= 4.317958D-01

 Vector  170  Occ=0.000000D+00  E= 4.359072D-01

 Vector  171  Occ=0.000000D+00  E= 4.367030D-01

 Vector  172  Occ=0.000000D+00  E= 4.411978D-01

 Vector  173  Occ=0.000000D+00  E= 4.446635D-01

 Vector  174  Occ=0.000000D+00  E= 4.455531D-01

 Vector  175  Occ=0.000000D+00  E= 4.509238D-01

 Vector  176  Occ=0.000000D+00  E= 4.531323D-01

 Vector  177  Occ=0.000000D+00  E= 4.574641D-01

 Vector  178  Occ=0.000000D+00  E= 4.657807D-01

 Vector  179  Occ=0.000000D+00  E= 4.672191D-01

 Vector  180  Occ=0.000000D+00  E= 4.744984D-01

 Vector  181  Occ=0.000000D+00  E= 4.767088D-01

 Vector  182  Occ=0.000000D+00  E= 4.780655D-01

 Vector  183  Occ=0.000000D+00  E= 4.837075D-01

 Vector  184  Occ=0.000000D+00  E= 4.859273D-01

 Vector  185  Occ=0.000000D+00  E= 4.899735D-01

 Vector  186  Occ=0.000000D+00  E= 4.945060D-01

 Vector  187  Occ=0.000000D+00  E= 5.000951D-01

       Multipole analysis of the density wrt the origin
       ------------------------------------------------

     L   x y z        total         open         nuclear
     -   - - -        -----         ----         -------
     0   0 0 0      0.000000      0.000000    132.000000

     1   1 0 0      0.514286      0.000000      0.000000
     1   0 1 0     -0.205523      0.000000      0.000000
     1   0 0 1     -1.070232      0.000000     -0.000000

     2   2 0 0    -88.920420      0.000000    949.938636
     2   1 1 0      1.206786      0.000000      6.070091
     2   1 0 1      9.017198      0.000000     26.327671
     2   0 2 0    -54.135323      0.000000   2971.147372
     2   0 1 1      6.280698      0.000000    -21.784723

 Total times  cpu:     5020.7s     wall:     5142.2s
