 Output coordinates in angstroms (scale by  1.889725989 to convert to a.u.)

  No.       Tag          Charge          X              Y              Z
 ---- ---------------- ---------- -------------- -------------- --------------
    1 H                    1.0000     2.99439963    -5.09721749     0.47540206
    2 C                    6.0000     2.65441782    -4.24649350     1.06416608
    3 H                    1.0000     3.51534622    -3.66803364     1.39782831
    4 H                    1.0000     2.09247072    -4.59462460     1.92903497
    5 C                    6.0000     1.77173091    -3.36740603     0.21202112
    6 O                    8.0000     2.07729853    -2.19844441     0.00829050
    7 N                    7.0000     0.66847665    -3.92574452    -0.28163581
    8 H                    1.0000     0.48190125    -4.88809147    -0.05457643
    9 C                    6.0000    -0.31736631    -3.22986272    -1.11527373
   10 H                    1.0000     0.22141291    -2.61706072    -1.84023350
   11 C                    6.0000    -1.10932134    -4.28735951    -1.89856281
   12 H                    1.0000    -0.43094222    -4.89692392    -2.49588935
   13 H                    1.0000    -1.66234791    -4.92829608    -1.20959552
   14 H                    1.0000    -1.81897480    -3.79354066    -2.56374919
   15 C                    6.0000    -1.21559166    -2.27071646    -0.29679302
   16 O                    8.0000    -2.41806407    -2.48241033    -0.17012885
   17 N                    7.0000    -0.62344384    -1.22136299     0.28164301
   18 H                    1.0000     0.37903533    -1.12445907     0.16153409
   19 C                    6.0000    -1.29961896    -0.25104429     1.15916500
   20 H                    1.0000    -1.86173601    -0.80227626     1.91527725
   21 C                    6.0000    -0.22433528     0.58230848     1.87462091
   22 H                    1.0000    -0.71829872     1.26761045     2.56451461
   23 H                    1.0000     0.38908917    -0.08891094     2.47726918
   24 C                    6.0000     0.68099483     1.38723124     0.98494302
   25 C                    6.0000     1.92095061     1.01498770     0.59319000
   26 H                    1.0000     2.41554269     0.09720685     0.88807809
   27 N                    7.0000     2.45143383     1.97109507    -0.24925420
   28 H                    1.0000     3.36729765     1.89535060    -0.66649662
   29 C                    6.0000     1.57884081     3.01912080    -0.44145070
   30 C                    6.0000     1.65665205     4.20018473    -1.19520092
   31 H                    1.0000     2.53946625     4.41941255    -1.77717364
   32 C                    6.0000     0.57378146     5.09429487    -1.17642981
   33 H                    1.0000     0.61482683     6.01110947    -1.74865990
   34 C                    6.0000    -0.56500932     4.79840250    -0.40528115
   35 H                    1.0000    -1.39554828     5.48959725    -0.38681890
   36 C                    6.0000    -0.63056621     3.60805169     0.34721022
   37 H                    1.0000    -1.51035372     3.40065263     0.94049308
   38 C                    6.0000     0.43613370     2.68130597     0.34426401
   39 C                    6.0000    -2.31976227     0.66260860     0.45124197
   40 O                    8.0000    -3.10562144     1.33397709     1.10809410
   41 N                    7.0000    -2.33819175     0.72205771    -0.87450731
   42 H                    1.0000    -3.01042362     1.32817859    -1.31358336
   43 H                    1.0000    -1.69057685     0.16933627    -1.40740219

         Total SCF energy =  -1060.128948889181

 Vector  152  Occ=0.000000D+00  E= 2.466373D-01

 Vector  153  Occ=0.000000D+00  E= 2.483999D-01

 Vector  154  Occ=0.000000D+00  E= 2.516560D-01

 Vector  155  Occ=0.000000D+00  E= 2.520160D-01

 Vector  156  Occ=0.000000D+00  E= 2.616466D-01

 Vector  157  Occ=0.000000D+00  E= 2.634590D-01

 Vector  158  Occ=0.000000D+00  E= 2.652748D-01

 Vector  159  Occ=0.000000D+00  E= 2.710536D-01

 Vector  160  Occ=0.000000D+00  E= 2.764087D-01

 Vector  161  Occ=0.000000D+00  E= 2.802459D-01

 Vector  162  Occ=0.000000D+00  E= 2.832080D-01

 Vector  163  Occ=0.000000D+00  E= 2.894136D-01

 Vector  164  Occ=0.000000D+00  E= 2.958964D-01

 Vector  165  Occ=0.000000D+00  E= 2.967531D-01

 Vector  166  Occ=0.000000D+00  E= 2.978476D-01

 Vector  167  Occ=0.000000D+00  E= 3.069270D-01

 Vector  168  Occ=0.000000D+00  E= 3.095991D-01

 Vector  169  Occ=0.000000D+00  E= 3.107131D-01

 Vector  170  Occ=0.000000D+00  E= 3.153698D-01

 Vector  171  Occ=0.000000D+00  E= 3.163799D-01

 Vector  172  Occ=0.000000D+00  E= 3.201588D-01

 Vector  173  Occ=0.000000D+00  E= 3.218666D-01

 Vector  174  Occ=0.000000D+00  E= 3.238354D-01

 Vector  175  Occ=0.000000D+00  E= 3.310589D-01

 Vector  176  Occ=0.000000D+00  E= 3.346656D-01

 Vector  177  Occ=0.000000D+00  E= 3.382030D-01

 Vector  178  Occ=0.000000D+00  E= 3.407480D-01

 Vector  179  Occ=0.000000D+00  E= 3.432782D-01

 Vector  180  Occ=0.000000D+00  E= 3.466768D-01

 Vector  181  Occ=0.000000D+00  E= 3.485619D-01

 Vector  182  Occ=0.000000D+00  E= 3.515697D-01

 Vector  183  Occ=0.000000D+00  E= 3.547143D-01

 Vector  184  Occ=0.000000D+00  E= 3.575064D-01

 Vector  185  Occ=0.000000D+00  E= 3.608170D-01

 Vector  186  Occ=0.000000D+00  E= 3.643341D-01

 Vector  187  Occ=0.000000D+00  E= 3.667404D-01

 Vector  188  Occ=0.000000D+00  E= 3.694489D-01

 Vector  189  Occ=0.000000D+00  E= 3.749339D-01

 Vector  190  Occ=0.000000D+00  E= 3.787827D-01

 Vector  191  Occ=0.000000D+00  E= 3.817515D-01

 Vector  192  Occ=0.000000D+00  E= 3.841842D-01

 Vector  193  Occ=0.000000D+00  E= 3.882402D-01

 Vector  194  Occ=0.000000D+00  E= 3.922362D-01

 Vector  195  Occ=0.000000D+00  E= 3.942410D-01

 Vector  196  Occ=0.000000D+00  E= 3.956612D-01

 Vector  197  Occ=0.000000D+00  E= 3.972188D-01

 Vector  198  Occ=0.000000D+00  E= 4.039536D-01

 Vector  199  Occ=0.000000D+00  E= 4.062604D-01

 Vector  200  Occ=0.000000D+00  E= 4.078120D-01

 Vector  201  Occ=0.000000D+00  E= 4.091297D-01

 Vector  202  Occ=0.000000D+00  E= 4.107350D-01

 Vector  203  Occ=0.000000D+00  E= 4.152869D-01

 Vector  204  Occ=0.000000D+00  E= 4.186761D-01

 Vector  205  Occ=0.000000D+00  E= 4.225447D-01

 Vector  206  Occ=0.000000D+00  E= 4.251359D-01

 Vector  207  Occ=0.000000D+00  E= 4.303356D-01

 Vector  208  Occ=0.000000D+00  E= 4.331279D-01

 Vector  209  Occ=0.000000D+00  E= 4.349248D-01

 Vector  210  Occ=0.000000D+00  E= 4.378008D-01

 Vector  211  Occ=0.000000D+00  E= 4.383588D-01

 Vector  212  Occ=0.000000D+00  E= 4.417351D-01

 Vector  213  Occ=0.000000D+00  E= 4.432566D-01

 Vector  214  Occ=0.000000D+00  E= 4.472400D-01

 Vector  215  Occ=0.000000D+00  E= 4.493619D-01

 Vector  216  Occ=0.000000D+00  E= 4.533965D-01

 Vector  217  Occ=0.000000D+00  E= 4.578791D-01

 Vector  218  Occ=0.000000D+00  E= 4.602245D-01

 Vector  219  Occ=0.000000D+00  E= 4.644253D-01

 Vector  220  Occ=0.000000D+00  E= 4.669605D-01

 Vector  221  Occ=0.000000D+00  E= 4.700486D-01

 Vector  222  Occ=0.000000D+00  E= 4.743453D-01

 Vector  223  Occ=0.000000D+00  E= 4.804110D-01

 Vector  224  Occ=0.000000D+00  E= 4.824330D-01

 Vector  225  Occ=0.000000D+00  E= 4.860371D-01

 Vector  226  Occ=0.000000D+00  E= 4.889343D-01

 Vector  227  Occ=0.000000D+00  E= 4.894765D-01

 Vector  228  Occ=0.000000D+00  E= 4.937203D-01

 Vector  229  Occ=0.000000D+00  E= 4.959383D-01

 Vector  230  Occ=0.000000D+00  E= 4.997574D-01

 Vector  231  Occ=0.000000D+00  E= 5.037914D-01

       Multipole analysis of the density wrt the origin
       ------------------------------------------------

     L   x y z        total         open         nuclear
     -   - - -        -----         ----         -------
     0   0 0 0      0.000000      0.000000    168.000000

     1   1 0 0      2.558178      0.000000     -0.000000
     1   0 1 0     -2.389905      0.000000      0.000000
     1   0 0 1     -1.012311      0.000000      0.000000

     2   2 0 0   -110.945894      0.000000   1806.108940
     2   1 1 0     -5.939226      0.000000    -33.900583
     2   1 0 1      5.745446      0.000000     23.052611
     2   0 2 0    -85.977322      0.000000   5321.126236
     2   0 1 1     -6.185180      0.000000     -4.329134

 Total times  cpu:    27993.7s     wall:    28115.9s
