 Output coordinates in angstroms (scale by  1.889725989 to convert to a.u.)

  No.       Tag          Charge          X              Y              Z
 ---- ---------------- ---------- -------------- -------------- --------------
    1 H                    1.0000     3.37102800    -2.47911342     0.13224245
    2 C                    6.0000     2.40783030    -2.84445845     0.48412625
    3 H                    1.0000     2.35764558    -2.75311468     1.56793057
    4 H                    1.0000     2.28852759    -3.88626232     0.19278871
    5 C                    6.0000     1.31101275    -2.02057804    -0.14636748
    6 O                    8.0000     1.58829448    -1.10671575    -0.91150312
    7 N                    7.0000     0.05992789    -2.32004831     0.20121592
    8 H                    1.0000    -0.08121882    -3.08276014     0.84228788
    9 C                    6.0000    -1.13718253    -1.71874200    -0.40625374
   10 H                    1.0000    -1.08939911    -1.88921458    -1.48245114
   11 C                    6.0000    -2.36168554    -2.46753370     0.13793500
   12 H                    1.0000    -3.26362036    -2.09225300    -0.34876716
   13 H                    1.0000    -2.27122988    -3.53421667    -0.07123529
   14 H                    1.0000    -2.45049871    -2.31079214     1.21399509
   15 C                    6.0000    -1.28846235    -0.18898626    -0.21794077
   16 O                    8.0000    -2.16008214     0.41340098    -0.83735545
   17 N                    7.0000    -0.45259352     0.44539585     0.61078816
   18 H                    1.0000     0.26138462    -0.10198934     1.06097554
   19 C                    6.0000    -0.37407609     1.90284775     0.74290171
   20 H                    1.0000    -1.38699756     2.30975818     0.74737215
   21 C                    6.0000     0.27600338     2.21581567     2.09769644
   22 H                    1.0000     1.29829936     1.83713980     2.12000151
   23 H                    1.0000     0.29550732     3.29679743     2.24895793
   24 H                    1.0000    -0.30201444     1.75885036     2.90260583
   25 C                    6.0000     0.38121487     2.59572538    -0.41732247
   26 O                    8.0000     0.38819318     3.81735404    -0.50858430
   27 N                    7.0000     1.04444014     1.86087559    -1.30377610
   28 H                    1.0000     1.06926226     0.85251874    -1.22128169
   29 H                    1.0000     1.52172970     2.33423356    -2.05212489

         Total SCF energy =   -699.781158642780

 Vector   74  Occ=0.000000D+00  E= 1.384994D-01

 Vector   75  Occ=0.000000D+00  E= 1.401340D-01

 Vector   76  Occ=0.000000D+00  E= 1.444323D-01

 Vector   77  Occ=0.000000D+00  E= 1.465939D-01

 Vector   78  Occ=0.000000D+00  E= 1.496846D-01

 Vector   79  Occ=0.000000D+00  E= 1.521524D-01

 Vector   80  Occ=0.000000D+00  E= 1.554856D-01

 Vector   81  Occ=0.000000D+00  E= 1.597196D-01

 Vector   82  Occ=0.000000D+00  E= 1.633766D-01

 Vector   83  Occ=0.000000D+00  E= 1.657188D-01

 Vector   84  Occ=0.000000D+00  E= 1.703208D-01

 Vector   85  Occ=0.000000D+00  E= 1.715540D-01

 Vector   86  Occ=0.000000D+00  E= 1.778618D-01

 Vector   87  Occ=0.000000D+00  E= 1.788755D-01

 Vector   88  Occ=0.000000D+00  E= 1.863665D-01

 Vector   89  Occ=0.000000D+00  E= 1.894425D-01

 Vector   90  Occ=0.000000D+00  E= 1.904844D-01

 Vector   91  Occ=0.000000D+00  E= 1.953311D-01

 Vector   92  Occ=0.000000D+00  E= 1.998293D-01

 Vector   93  Occ=0.000000D+00  E= 2.010216D-01

 Vector   94  Occ=0.000000D+00  E= 2.028986D-01

 Vector   95  Occ=0.000000D+00  E= 2.056746D-01

 Vector   96  Occ=0.000000D+00  E= 2.112805D-01

 Vector   97  Occ=0.000000D+00  E= 2.140051D-01

 Vector   98  Occ=0.000000D+00  E= 2.196868D-01

 Vector   99  Occ=0.000000D+00  E= 2.257992D-01

 Vector  100  Occ=0.000000D+00  E= 2.306275D-01

 Vector  101  Occ=0.000000D+00  E= 2.345367D-01

 Vector  102  Occ=0.000000D+00  E= 2.478590D-01

 Vector  103  Occ=0.000000D+00  E= 2.538515D-01

 Vector  104  Occ=0.000000D+00  E= 2.652068D-01

 Vector  105  Occ=0.000000D+00  E= 2.676165D-01

 Vector  106  Occ=0.000000D+00  E= 2.696155D-01

 Vector  107  Occ=0.000000D+00  E= 2.720603D-01

 Vector  108  Occ=0.000000D+00  E= 2.831649D-01

 Vector  109  Occ=0.000000D+00  E= 2.862837D-01

 Vector  110  Occ=0.000000D+00  E= 2.918107D-01

 Vector  111  Occ=0.000000D+00  E= 3.030516D-01

 Vector  112  Occ=0.000000D+00  E= 3.111179D-01

 Vector  113  Occ=0.000000D+00  E= 3.180428D-01

 Vector  114  Occ=0.000000D+00  E= 3.257696D-01

 Vector  115  Occ=0.000000D+00  E= 3.306836D-01

 Vector  116  Occ=0.000000D+00  E= 3.324290D-01

 Vector  117  Occ=0.000000D+00  E= 3.377536D-01

 Vector  118  Occ=0.000000D+00  E= 3.442313D-01

 Vector  119  Occ=0.000000D+00  E= 3.485573D-01

 Vector  120  Occ=0.000000D+00  E= 3.523227D-01

 Vector  121  Occ=0.000000D+00  E= 3.596596D-01

 Vector  122  Occ=0.000000D+00  E= 3.635224D-01

 Vector  123  Occ=0.000000D+00  E= 3.655359D-01

 Vector  124  Occ=0.000000D+00  E= 3.705327D-01

 Vector  125  Occ=0.000000D+00  E= 3.745474D-01

 Vector  126  Occ=0.000000D+00  E= 3.806224D-01

 Vector  127  Occ=0.000000D+00  E= 3.859373D-01

 Vector  128  Occ=0.000000D+00  E= 3.874475D-01

 Vector  129  Occ=0.000000D+00  E= 3.887918D-01

 Vector  130  Occ=0.000000D+00  E= 3.967148D-01

 Vector  131  Occ=0.000000D+00  E= 4.011158D-01

 Vector  132  Occ=0.000000D+00  E= 4.023582D-01

 Vector  133  Occ=0.000000D+00  E= 4.081228D-01

 Vector  134  Occ=0.000000D+00  E= 4.089212D-01

 Vector  135  Occ=0.000000D+00  E= 4.157379D-01

 Vector  136  Occ=0.000000D+00  E= 4.183451D-01

 Vector  137  Occ=0.000000D+00  E= 4.252895D-01

 Vector  138  Occ=0.000000D+00  E= 4.308645D-01

 Vector  139  Occ=0.000000D+00  E= 4.354450D-01

 Vector  140  Occ=0.000000D+00  E= 4.365812D-01

 Vector  141  Occ=0.000000D+00  E= 4.404570D-01

 Vector  142  Occ=0.000000D+00  E= 4.463488D-01

 Vector  143  Occ=0.000000D+00  E= 4.488787D-01

 Vector  144  Occ=0.000000D+00  E= 4.558932D-01

 Vector  145  Occ=0.000000D+00  E= 4.643744D-01

 Vector  146  Occ=0.000000D+00  E= 4.651456D-01

 Vector  147  Occ=0.000000D+00  E= 4.750202D-01

 Vector  148  Occ=0.000000D+00  E= 4.789802D-01

 Vector  149  Occ=0.000000D+00  E= 4.829528D-01

 Vector  150  Occ=0.000000D+00  E= 4.837986D-01

 Vector  151  Occ=0.000000D+00  E= 4.877123D-01

 Vector  152  Occ=0.000000D+00  E= 4.932936D-01

 Vector  153  Occ=0.000000D+00  E= 5.003145D-01

       Multipole analysis of the density wrt the origin
       ------------------------------------------------

     L   x y z        total         open         nuclear
     -   - - -        -----         ----         -------
     0   0 0 0     -0.000000      0.000000    108.000000

     1   1 0 0      0.732571      0.000000      0.000000
     1   0 1 0     -3.632490      0.000000     -0.000000
     1   0 0 1      1.680739      0.000000      0.000000

     2   2 0 0    -65.350301      0.000000    781.151841
     2   1 1 0      0.705189      0.000000      5.416814
     2   1 0 1     -1.572240      0.000000      3.323683
     2   0 2 0    -67.774298      0.000000   1796.751506
     2   0 1 1      0.755447      0.000000      8.526286

 Total times  cpu:     2719.7s     wall:     3172.8s
