 Output coordinates in angstroms (scale by  1.889725989 to convert to a.u.)

  No.       Tag          Charge          X              Y              Z
 ---- ---------------- ---------- -------------- -------------- --------------
    1 H                    1.0000    -1.17875089     6.07483666     0.00237231
    2 C                    6.0000    -0.97554898     5.20530787     0.62585662
    3 H                    1.0000    -1.91347488     4.78324011     0.98168636
    4 H                    1.0000    -0.35521003     5.49798357     1.47051603
    5 C                    6.0000    -0.24242936     4.17264379    -0.19879999
    6 O                    8.0000     0.02355562     4.39867412    -1.37117718
    7 N                    7.0000     0.07605253     3.03745593     0.41861949
    8 H                    1.0000    -0.21083689     2.90965993     1.37735440
    9 C                    6.0000     0.76281423     1.91026275    -0.21305994
   10 H                    1.0000     0.46773685     1.85964160    -1.26231531
   11 C                    6.0000     2.27894322     2.14731545    -0.14444581
   12 H                    1.0000     2.60115827     2.20426730     0.89600791
   13 H                    1.0000     2.80619118     1.33070734    -0.63951529
   14 H                    1.0000     2.52852301     3.08149360    -0.65037080
   15 C                    6.0000     0.36916474     0.58006452     0.45444793
   16 O                    8.0000    -0.11846821     0.56626225     1.58496312
   17 N                    7.0000     0.59638333    -0.53959431    -0.23917792
   18 H                    1.0000     1.04656049    -0.46083471    -1.14089930
   19 C                    6.0000     0.31667759    -1.90503046     0.23371723
   20 H                    1.0000     0.19914935    -1.89034269     1.31823435
   21 C                    6.0000    -1.00131202    -2.44824658    -0.38436095
   22 H                    1.0000    -0.91360742    -2.39225975    -1.47125533
   23 C                    6.0000    -1.22864867    -3.92710083    -0.00847515
   24 H                    1.0000    -0.40978014    -4.54807883    -0.36898125
   25 H                    1.0000    -1.32234002    -4.03115164     1.07322183
   26 H                    1.0000    -2.13348245    -4.30511560    -0.48238406
   27 C                    6.0000    -2.21339934    -1.58654999     0.04929943
   28 H                    1.0000    -2.30666008    -1.61319695     1.13505326
   29 H                    1.0000    -2.03995595    -0.55245363    -0.24741610
   30 C                    6.0000    -3.55620141    -1.99450645    -0.57196711
   31 H                    1.0000    -3.89350797    -2.94845589    -0.16657624
   32 H                    1.0000    -4.30440557    -1.23844417    -0.33531892
   33 H                    1.0000    -3.45868767    -2.06842523    -1.65615717
   34 C                    6.0000     1.52896469    -2.78772035    -0.09126822
   35 O                    8.0000     2.10550287    -2.68882799    -1.16868412
   36 N                    7.0000     1.93808725    -3.66010822     0.81978783
   37 H                    1.0000     2.73697272    -4.23341518     0.60192516
   38 H                    1.0000     1.46187582    -3.73143507     1.70373362

         Total SCF energy =   -816.894271762844

 Vector  112  Occ=0.000000D+00  E= 1.984702D-01

 Vector  113  Occ=0.000000D+00  E= 2.001242D-01

 Vector  114  Occ=0.000000D+00  E= 2.039994D-01

 Vector  115  Occ=0.000000D+00  E= 2.065578D-01

 Vector  116  Occ=0.000000D+00  E= 2.078025D-01

 Vector  117  Occ=0.000000D+00  E= 2.117724D-01

 Vector  118  Occ=0.000000D+00  E= 2.126723D-01

 Vector  119  Occ=0.000000D+00  E= 2.190893D-01

 Vector  120  Occ=0.000000D+00  E= 2.214731D-01

 Vector  121  Occ=0.000000D+00  E= 2.253843D-01

 Vector  122  Occ=0.000000D+00  E= 2.288556D-01

 Vector  123  Occ=0.000000D+00  E= 2.335560D-01

 Vector  124  Occ=0.000000D+00  E= 2.354789D-01

 Vector  125  Occ=0.000000D+00  E= 2.376465D-01

 Vector  126  Occ=0.000000D+00  E= 2.416903D-01

 Vector  127  Occ=0.000000D+00  E= 2.439385D-01

 Vector  128  Occ=0.000000D+00  E= 2.519300D-01

 Vector  129  Occ=0.000000D+00  E= 2.563381D-01

 Vector  130  Occ=0.000000D+00  E= 2.699554D-01

 Vector  131  Occ=0.000000D+00  E= 2.703835D-01

 Vector  132  Occ=0.000000D+00  E= 2.795363D-01

 Vector  133  Occ=0.000000D+00  E= 2.812396D-01

 Vector  134  Occ=0.000000D+00  E= 2.876104D-01

 Vector  135  Occ=0.000000D+00  E= 2.953453D-01

 Vector  136  Occ=0.000000D+00  E= 2.980905D-01

 Vector  137  Occ=0.000000D+00  E= 3.048400D-01

 Vector  138  Occ=0.000000D+00  E= 3.081751D-01

 Vector  139  Occ=0.000000D+00  E= 3.160719D-01

 Vector  140  Occ=0.000000D+00  E= 3.201124D-01

 Vector  141  Occ=0.000000D+00  E= 3.250074D-01

 Vector  142  Occ=0.000000D+00  E= 3.294494D-01

 Vector  143  Occ=0.000000D+00  E= 3.308904D-01

 Vector  144  Occ=0.000000D+00  E= 3.345836D-01

 Vector  145  Occ=0.000000D+00  E= 3.418164D-01

 Vector  146  Occ=0.000000D+00  E= 3.453154D-01

 Vector  147  Occ=0.000000D+00  E= 3.491598D-01

 Vector  148  Occ=0.000000D+00  E= 3.566597D-01

 Vector  149  Occ=0.000000D+00  E= 3.630028D-01

 Vector  150  Occ=0.000000D+00  E= 3.646916D-01

 Vector  151  Occ=0.000000D+00  E= 3.662525D-01

 Vector  152  Occ=0.000000D+00  E= 3.699594D-01

 Vector  153  Occ=0.000000D+00  E= 3.700423D-01

 Vector  154  Occ=0.000000D+00  E= 3.747010D-01

 Vector  155  Occ=0.000000D+00  E= 3.773816D-01

 Vector  156  Occ=0.000000D+00  E= 3.808289D-01

 Vector  157  Occ=0.000000D+00  E= 3.842534D-01

 Vector  158  Occ=0.000000D+00  E= 3.861900D-01

 Vector  159  Occ=0.000000D+00  E= 3.882042D-01

 Vector  160  Occ=0.000000D+00  E= 3.926348D-01

 Vector  161  Occ=0.000000D+00  E= 3.952745D-01

 Vector  162  Occ=0.000000D+00  E= 4.020139D-01

 Vector  163  Occ=0.000000D+00  E= 4.031763D-01

 Vector  164  Occ=0.000000D+00  E= 4.076019D-01

 Vector  165  Occ=0.000000D+00  E= 4.112681D-01

 Vector  166  Occ=0.000000D+00  E= 4.159866D-01

 Vector  167  Occ=0.000000D+00  E= 4.183021D-01

 Vector  168  Occ=0.000000D+00  E= 4.217085D-01

 Vector  169  Occ=0.000000D+00  E= 4.267824D-01

 Vector  170  Occ=0.000000D+00  E= 4.311207D-01

 Vector  171  Occ=0.000000D+00  E= 4.337131D-01

 Vector  172  Occ=0.000000D+00  E= 4.343005D-01

 Vector  173  Occ=0.000000D+00  E= 4.438779D-01

 Vector  174  Occ=0.000000D+00  E= 4.447856D-01

 Vector  175  Occ=0.000000D+00  E= 4.489583D-01

 Vector  176  Occ=0.000000D+00  E= 4.495422D-01

 Vector  177  Occ=0.000000D+00  E= 4.530136D-01

 Vector  178  Occ=0.000000D+00  E= 4.571166D-01

 Vector  179  Occ=0.000000D+00  E= 4.645515D-01

 Vector  180  Occ=0.000000D+00  E= 4.658946D-01

 Vector  181  Occ=0.000000D+00  E= 4.701313D-01

 Vector  182  Occ=0.000000D+00  E= 4.718182D-01

 Vector  183  Occ=0.000000D+00  E= 4.745452D-01

 Vector  184  Occ=0.000000D+00  E= 4.754722D-01

 Vector  185  Occ=0.000000D+00  E= 4.811679D-01

 Vector  186  Occ=0.000000D+00  E= 4.832611D-01

 Vector  187  Occ=0.000000D+00  E= 4.883997D-01

 Vector  188  Occ=0.000000D+00  E= 4.949877D-01

 Vector  189  Occ=0.000000D+00  E= 4.973330D-01

 Vector  190  Occ=0.000000D+00  E= 4.999314D-01

 Vector  191  Occ=0.000000D+00  E= 5.064001D-01

       Multipole analysis of the density wrt the origin
       ------------------------------------------------

     L   x y z        total         open         nuclear
     -   - - -        -----         ----         -------
     0   0 0 0     -0.000000      0.000000    132.000000

     1   1 0 0     -0.214322      0.000000      0.000000
     1   0 1 0     -1.523317      0.000000     -0.000000
     1   0 0 1      1.535853      0.000000      0.000000

     2   2 0 0    -77.102609      0.000000   1216.256344
     2   1 1 0     -1.825625      0.000000     51.358222
     2   1 0 1      5.123716      0.000000      9.770691
     2   0 2 0    -74.498392      0.000000   4150.897547
     2   0 1 1      2.121138      0.000000     14.579046

 Total times  cpu:     4735.9s     wall:     4902.4s
