 Output coordinates in angstroms (scale by  1.889725989 to convert to a.u.)

  No.       Tag          Charge          X              Y              Z
 ---- ---------------- ---------- -------------- -------------- --------------
    1 H                    1.0000     1.68069785    -5.33283492    -0.78567919
    2 C                    6.0000     1.88203998    -4.30111234    -1.06448355
    3 H                    1.0000     1.58325877    -4.12661905    -2.09634540
    4 H                    1.0000     2.94681534    -4.09752066    -0.95669731
    5 C                    6.0000     1.11180402    -3.37374857    -0.15350715
    6 O                    8.0000     1.71389400    -2.56439008     0.53829520
    7 N                    7.0000    -0.21662763    -3.50275767    -0.16860684
    8 H                    1.0000    -0.58165582    -4.21247983    -0.78188971
    9 C                    6.0000    -1.21657505    -2.73450336     0.59710489
   10 H                    1.0000    -2.19303440    -3.10301301     0.27972060
   11 C                    6.0000    -1.09371336    -3.08453763     2.08735052
   12 H                    1.0000    -0.14690925    -2.71538285     2.48458562
   13 H                    1.0000    -1.91161781    -2.61898163     2.63936132
   14 H                    1.0000    -1.14571679    -4.16491545     2.22474194
   15 C                    6.0000    -1.27168410    -1.20624178     0.35517613
   16 O                    8.0000    -2.36523387    -0.64715108     0.31890646
   17 N                    7.0000    -0.13722788    -0.53022751     0.15255380
   18 H                    1.0000     0.72823094    -1.05152274     0.23665676
   19 C                    6.0000    -0.03616320     0.91019187    -0.11822830
   20 H                    1.0000    -0.73130538     1.41770946     0.55142030
   21 C                    6.0000     1.38309608     1.38057256     0.25069731
   22 H                    1.0000     1.60298891     1.06197918     1.27090631
   23 H                    1.0000     2.10053081     0.89107468    -0.41099313
   24 C                    6.0000     1.60949348     2.89833858     0.17446394
   25 H                    1.0000     2.65460910     3.07870682     0.42534164
   26 H                    1.0000     1.46516064     3.24754421    -0.84763608
   27 S                   16.0000     0.60545704     3.91220178     1.29959959
   28 C                    6.0000    -0.77426019     4.37963502     0.21698815
   29 H                    1.0000    -1.42639532     5.07470491     0.74597927
   30 H                    1.0000    -0.38812333     4.86462969    -0.68025902
   31 H                    1.0000    -1.34885109     3.49960497    -0.06423493
   32 C                    6.0000    -0.45596056     1.26004086    -1.56200697
   33 O                    8.0000     0.34718626     1.64325149    -2.40297178
   34 N                    7.0000    -1.72988565     1.09698529    -1.88843266
   35 H                    1.0000    -2.36791457     0.71432362    -1.20287949
   36 H                    1.0000    -2.01712684     1.30426944    -2.82946176

         Total SCF energy =  -1175.381502861675

 Vector  113  Occ=0.000000D+00  E= 1.920711D-01

 Vector  114  Occ=0.000000D+00  E= 1.953252D-01

 Vector  115  Occ=0.000000D+00  E= 1.967148D-01

 Vector  116  Occ=0.000000D+00  E= 1.979094D-01

 Vector  117  Occ=0.000000D+00  E= 2.052749D-01

 Vector  118  Occ=0.000000D+00  E= 2.079993D-01

 Vector  119  Occ=0.000000D+00  E= 2.109466D-01

 Vector  120  Occ=0.000000D+00  E= 2.133359D-01

 Vector  121  Occ=0.000000D+00  E= 2.139203D-01

 Vector  122  Occ=0.000000D+00  E= 2.174545D-01

 Vector  123  Occ=0.000000D+00  E= 2.236144D-01

 Vector  124  Occ=0.000000D+00  E= 2.265106D-01

 Vector  125  Occ=0.000000D+00  E= 2.273045D-01

 Vector  126  Occ=0.000000D+00  E= 2.307699D-01

 Vector  127  Occ=0.000000D+00  E= 2.349653D-01

 Vector  128  Occ=0.000000D+00  E= 2.406070D-01

 Vector  129  Occ=0.000000D+00  E= 2.464981D-01

 Vector  130  Occ=0.000000D+00  E= 2.504299D-01

 Vector  131  Occ=0.000000D+00  E= 2.533785D-01

 Vector  132  Occ=0.000000D+00  E= 2.574041D-01

 Vector  133  Occ=0.000000D+00  E= 2.620467D-01

 Vector  134  Occ=0.000000D+00  E= 2.679198D-01

 Vector  135  Occ=0.000000D+00  E= 2.777218D-01

 Vector  136  Occ=0.000000D+00  E= 2.852826D-01

 Vector  137  Occ=0.000000D+00  E= 2.893785D-01

 Vector  138  Occ=0.000000D+00  E= 2.953951D-01

 Vector  139  Occ=0.000000D+00  E= 3.011486D-01

 Vector  140  Occ=0.000000D+00  E= 3.041870D-01

 Vector  141  Occ=0.000000D+00  E= 3.138391D-01

 Vector  142  Occ=0.000000D+00  E= 3.174942D-01

 Vector  143  Occ=0.000000D+00  E= 3.208052D-01

 Vector  144  Occ=0.000000D+00  E= 3.266039D-01

 Vector  145  Occ=0.000000D+00  E= 3.303086D-01

 Vector  146  Occ=0.000000D+00  E= 3.314557D-01

 Vector  147  Occ=0.000000D+00  E= 3.345501D-01

 Vector  148  Occ=0.000000D+00  E= 3.404202D-01

 Vector  149  Occ=0.000000D+00  E= 3.453548D-01

 Vector  150  Occ=0.000000D+00  E= 3.464760D-01

 Vector  151  Occ=0.000000D+00  E= 3.501670D-01

 Vector  152  Occ=0.000000D+00  E= 3.557431D-01

 Vector  153  Occ=0.000000D+00  E= 3.612223D-01

 Vector  154  Occ=0.000000D+00  E= 3.621525D-01

 Vector  155  Occ=0.000000D+00  E= 3.666357D-01

 Vector  156  Occ=0.000000D+00  E= 3.677271D-01

 Vector  157  Occ=0.000000D+00  E= 3.723868D-01

 Vector  158  Occ=0.000000D+00  E= 3.787593D-01

 Vector  159  Occ=0.000000D+00  E= 3.811583D-01

 Vector  160  Occ=0.000000D+00  E= 3.889944D-01

 Vector  161  Occ=0.000000D+00  E= 3.923701D-01

 Vector  162  Occ=0.000000D+00  E= 3.974786D-01

 Vector  163  Occ=0.000000D+00  E= 4.010823D-01

 Vector  164  Occ=0.000000D+00  E= 4.062309D-01

 Vector  165  Occ=0.000000D+00  E= 4.076302D-01

 Vector  166  Occ=0.000000D+00  E= 4.100250D-01

 Vector  167  Occ=0.000000D+00  E= 4.117348D-01

 Vector  168  Occ=0.000000D+00  E= 4.184808D-01

 Vector  169  Occ=0.000000D+00  E= 4.225726D-01

 Vector  170  Occ=0.000000D+00  E= 4.245270D-01

 Vector  171  Occ=0.000000D+00  E= 4.271176D-01

 Vector  172  Occ=0.000000D+00  E= 4.299498D-01

 Vector  173  Occ=0.000000D+00  E= 4.307618D-01

 Vector  174  Occ=0.000000D+00  E= 4.353128D-01

 Vector  175  Occ=0.000000D+00  E= 4.396842D-01

 Vector  176  Occ=0.000000D+00  E= 4.410429D-01

 Vector  177  Occ=0.000000D+00  E= 4.462605D-01

 Vector  178  Occ=0.000000D+00  E= 4.505616D-01

 Vector  179  Occ=0.000000D+00  E= 4.537669D-01

 Vector  180  Occ=0.000000D+00  E= 4.594328D-01

 Vector  181  Occ=0.000000D+00  E= 4.634315D-01

 Vector  182  Occ=0.000000D+00  E= 4.655772D-01

 Vector  183  Occ=0.000000D+00  E= 4.699425D-01

 Vector  184  Occ=0.000000D+00  E= 4.740313D-01

 Vector  185  Occ=0.000000D+00  E= 4.771564D-01

 Vector  186  Occ=0.000000D+00  E= 4.779328D-01

 Vector  187  Occ=0.000000D+00  E= 4.817102D-01

 Vector  188  Occ=0.000000D+00  E= 4.859603D-01

 Vector  189  Occ=0.000000D+00  E= 4.885133D-01

 Vector  190  Occ=0.000000D+00  E= 4.941263D-01

 Vector  191  Occ=0.000000D+00  E= 4.986618D-01

 Vector  192  Occ=0.000000D+00  E= 5.039059D-01

       Multipole analysis of the density wrt the origin
       ------------------------------------------------

     L   x y z        total         open         nuclear
     -   - - -        -----         ----         -------
     0   0 0 0     -0.000000      0.000000    140.000000

     1   1 0 0     -0.623824      0.000000      0.000000
     1   0 1 0     -2.505244      0.000000     -0.000000
     1   0 0 1     -0.486701      0.000000     -0.000000

     2   2 0 0    -84.593135      0.000000    849.436237
     2   1 1 0     -2.331794      0.000000    -20.478494
     2   1 0 1      2.242811      0.000000    -12.215277
     2   0 2 0    -67.333071      0.000000   3964.831601
     2   0 1 1      2.860731      0.000000    -13.905431

 Total times  cpu:     4541.3s     wall:     4771.7s
