 Output coordinates in angstroms (scale by  1.889725989 to convert to a.u.)

  No.       Tag          Charge          X              Y              Z
 ---- ---------------- ---------- -------------- -------------- --------------
    1 H                    1.0000     2.13970286    -4.28582619    -0.19467524
    2 C                    6.0000     2.30675442    -3.23248343     0.02651427
    3 H                    1.0000     3.23782776    -2.90654039    -0.43615686
    4 H                    1.0000     2.36187267    -3.08167404     1.10252566
    5 C                    6.0000     1.16870591    -2.41576177    -0.53699376
    6 O                    8.0000     1.38671760    -1.54919079    -1.37216658
    7 N                    7.0000    -0.05004827    -2.68771695    -0.07410648
    8 H                    1.0000    -0.14632491    -3.40828693     0.62024985
    9 C                    6.0000    -1.26162593    -1.96755341    -0.47550037
   10 H                    1.0000    -1.23234074    -1.81758807    -1.55582753
   11 C                    6.0000    -2.47302794    -2.85876257    -0.15937634
   12 H                    1.0000    -2.53367089    -3.04424596     0.91408365
   13 H                    1.0000    -3.38665895    -2.35704782    -0.48156211
   14 H                    1.0000    -2.38647998    -3.80755864    -0.68835030
   15 C                    6.0000    -1.34439703    -0.56726258     0.17511746
   16 O                    8.0000    -2.13493845    -0.33932772     1.08958504
   17 N                    7.0000    -0.50031643     0.36338761    -0.27825231
   18 H                    1.0000     0.14541790     0.09450653    -1.01518591
   19 C                    6.0000    -0.38213722     1.73501631     0.25188955
   20 H                    1.0000    -1.28298441     1.96282049     0.82030278
   21 C                    6.0000     0.81724441     1.87620917     1.21606706
   22 H                    1.0000     0.83569639     2.90793584     1.57028254
   23 C                    6.0000     0.66710764     0.97855630     2.45075823
   24 H                    1.0000     0.73378640    -0.07152429     2.16766160
   25 H                    1.0000     1.45657513     1.20430721     3.16718521
   26 H                    1.0000    -0.29937329     1.15939527     2.92193216
   27 C                    6.0000     2.17382929     1.58588909     0.56021287
   28 H                    1.0000     2.33273284     2.25080118    -0.28951742
   29 H                    1.0000     2.97424364     1.74801674     1.28166452
   30 H                    1.0000     2.21462362     0.55423482     0.21118091
   31 C                    6.0000    -0.30040707     2.77085467    -0.87460594
   32 O                    8.0000     0.11611145     2.48027577    -1.98893498
   33 N                    7.0000    -0.68812061     4.00959987    -0.60608119
   34 H                    1.0000    -1.03462562     4.24922233     0.30735099
   35 H                    1.0000    -0.63602693     4.68988953    -1.34643059

         Total SCF energy =   -777.854333560373

 Vector   97  Occ=0.000000D+00  E= 1.769315D-01

 Vector   98  Occ=0.000000D+00  E= 1.797214D-01

 Vector   99  Occ=0.000000D+00  E= 1.828153D-01

 Vector  100  Occ=0.000000D+00  E= 1.851052D-01

 Vector  101  Occ=0.000000D+00  E= 1.863939D-01

 Vector  102  Occ=0.000000D+00  E= 1.895396D-01

 Vector  103  Occ=0.000000D+00  E= 1.933384D-01

 Vector  104  Occ=0.000000D+00  E= 1.982127D-01

 Vector  105  Occ=0.000000D+00  E= 1.994471D-01

 Vector  106  Occ=0.000000D+00  E= 2.033132D-01

 Vector  107  Occ=0.000000D+00  E= 2.068017D-01

 Vector  108  Occ=0.000000D+00  E= 2.082349D-01

 Vector  109  Occ=0.000000D+00  E= 2.125278D-01

 Vector  110  Occ=0.000000D+00  E= 2.158646D-01

 Vector  111  Occ=0.000000D+00  E= 2.207495D-01

 Vector  112  Occ=0.000000D+00  E= 2.218788D-01

 Vector  113  Occ=0.000000D+00  E= 2.267232D-01

 Vector  114  Occ=0.000000D+00  E= 2.313624D-01

 Vector  115  Occ=0.000000D+00  E= 2.339445D-01

 Vector  116  Occ=0.000000D+00  E= 2.383225D-01

 Vector  117  Occ=0.000000D+00  E= 2.431345D-01

 Vector  118  Occ=0.000000D+00  E= 2.460725D-01

 Vector  119  Occ=0.000000D+00  E= 2.477571D-01

 Vector  120  Occ=0.000000D+00  E= 2.568655D-01

 Vector  121  Occ=0.000000D+00  E= 2.603038D-01

 Vector  122  Occ=0.000000D+00  E= 2.742045D-01

 Vector  123  Occ=0.000000D+00  E= 2.785096D-01

 Vector  124  Occ=0.000000D+00  E= 2.838710D-01

 Vector  125  Occ=0.000000D+00  E= 2.877735D-01

 Vector  126  Occ=0.000000D+00  E= 2.982661D-01

 Vector  127  Occ=0.000000D+00  E= 3.057095D-01

 Vector  128  Occ=0.000000D+00  E= 3.099673D-01

 Vector  129  Occ=0.000000D+00  E= 3.141859D-01

 Vector  130  Occ=0.000000D+00  E= 3.183792D-01

 Vector  131  Occ=0.000000D+00  E= 3.264119D-01

 Vector  132  Occ=0.000000D+00  E= 3.300016D-01

 Vector  133  Occ=0.000000D+00  E= 3.307014D-01

 Vector  134  Occ=0.000000D+00  E= 3.373229D-01

 Vector  135  Occ=0.000000D+00  E= 3.399429D-01

 Vector  136  Occ=0.000000D+00  E= 3.454296D-01

 Vector  137  Occ=0.000000D+00  E= 3.470046D-01

 Vector  138  Occ=0.000000D+00  E= 3.584945D-01

 Vector  139  Occ=0.000000D+00  E= 3.627793D-01

 Vector  140  Occ=0.000000D+00  E= 3.662655D-01

 Vector  141  Occ=0.000000D+00  E= 3.707838D-01

 Vector  142  Occ=0.000000D+00  E= 3.750932D-01

 Vector  143  Occ=0.000000D+00  E= 3.800402D-01

 Vector  144  Occ=0.000000D+00  E= 3.843000D-01

 Vector  145  Occ=0.000000D+00  E= 3.850674D-01

 Vector  146  Occ=0.000000D+00  E= 3.887739D-01

 Vector  147  Occ=0.000000D+00  E= 3.938299D-01

 Vector  148  Occ=0.000000D+00  E= 3.953503D-01

 Vector  149  Occ=0.000000D+00  E= 3.978066D-01

 Vector  150  Occ=0.000000D+00  E= 4.026614D-01

 Vector  151  Occ=0.000000D+00  E= 4.032627D-01

 Vector  152  Occ=0.000000D+00  E= 4.085971D-01

 Vector  153  Occ=0.000000D+00  E= 4.142581D-01

 Vector  154  Occ=0.000000D+00  E= 4.181052D-01

 Vector  155  Occ=0.000000D+00  E= 4.202571D-01

 Vector  156  Occ=0.000000D+00  E= 4.256830D-01

 Vector  157  Occ=0.000000D+00  E= 4.270872D-01

 Vector  158  Occ=0.000000D+00  E= 4.303428D-01

 Vector  159  Occ=0.000000D+00  E= 4.322581D-01

 Vector  160  Occ=0.000000D+00  E= 4.361622D-01

 Vector  161  Occ=0.000000D+00  E= 4.392693D-01

 Vector  162  Occ=0.000000D+00  E= 4.408644D-01

 Vector  163  Occ=0.000000D+00  E= 4.437954D-01

 Vector  164  Occ=0.000000D+00  E= 4.463314D-01

 Vector  165  Occ=0.000000D+00  E= 4.539874D-01

 Vector  166  Occ=0.000000D+00  E= 4.607414D-01

 Vector  167  Occ=0.000000D+00  E= 4.631825D-01

 Vector  168  Occ=0.000000D+00  E= 4.678195D-01

 Vector  169  Occ=0.000000D+00  E= 4.709370D-01

 Vector  170  Occ=0.000000D+00  E= 4.798102D-01

 Vector  171  Occ=0.000000D+00  E= 4.831251D-01

 Vector  172  Occ=0.000000D+00  E= 4.910594D-01

 Vector  173  Occ=0.000000D+00  E= 4.943626D-01

 Vector  174  Occ=0.000000D+00  E= 4.953878D-01

 Vector  175  Occ=0.000000D+00  E= 4.980105D-01

 Vector  176  Occ=0.000000D+00  E= 5.032025D-01

       Multipole analysis of the density wrt the origin
       ------------------------------------------------

     L   x y z        total         open         nuclear
     -   - - -        -----         ----         -------
     0   0 0 0      0.000000      0.000000    124.000000

     1   1 0 0      0.107160      0.000000      0.000000
     1   0 1 0     -0.447623      0.000000     -0.000000
     1   0 0 1      1.253946      0.000000      0.000000

     2   2 0 0    -76.203263      0.000000    936.501120
     2   1 1 0     -4.310747      0.000000     12.662496
     2   1 0 1      7.858326      0.000000     23.623009
     2   0 2 0    -48.265778      0.000000   2340.840288
     2   0 1 1      3.177630      0.000000     17.806801

 Total times  cpu:    10208.3s     wall:    10247.1s
