============================== echo of input deck ==============================
start ARG_LYS_2
geometry
H          4.99200       18.55300       -0.95500
C          5.09300       19.33300       -0.20200
H          4.90600       18.90200        0.78100
H          4.36400       20.11900       -0.39600
C          6.49000       19.90300       -0.24900
O          7.20700       19.86100        0.75000
N          6.86800       20.48000       -1.39600
H          6.18200       20.47900       -2.13900
C          8.22600       20.97800       -1.72800
H          8.91600       20.17300       -1.47000
C          8.31400       21.22500       -3.25800
H          7.36800       20.94900       -3.72700
H          8.44800       22.28900       -3.45800
C          9.41900       20.42800       -3.98400
H          9.20700       19.36400       -3.87300
H          9.36300       20.66400       -5.04700
C         10.85900       20.68400       -3.50700
H         10.95700       20.33900       -2.47600
H         11.54500       20.08800       -4.11200
N         11.22400       22.11300       -3.56000
H         10.91500       22.65800       -2.76200
C         11.89000       22.75800       -4.50300
N         12.12400       24.03200       -4.37500
H         11.80700       24.51900       -3.55600
H         12.63300       24.52900       -5.08500
N         12.33000       22.16900       -5.58000
H         12.83800       22.68400       -6.27700
H         12.17000       21.18600       -5.70000
C          8.72500       22.19500       -0.91300
O          9.75800       22.77300       -1.25200
N          8.01700       22.58500        0.15300
H          7.20100       22.03300        0.36500
C          8.44500       23.59100        1.14500
H          8.68700       24.50800        0.60300
C          7.27900       23.91800        2.11000
H          7.59700       24.68500        2.81800
H          6.47900       24.35800        1.51000
C          6.66600       22.73200        2.88900
H          5.66000       23.01800        3.19800
H          6.54700       21.88200        2.22200
C          7.43300       22.31500        4.16200
H          8.44900       22.70400        4.15300
H          6.93800       22.77500        5.02000
C          7.47800       20.79400        4.39000
H          7.93500       20.61800        5.36900
H          6.45700       20.40300        4.42500
N          8.26700       20.08800        3.34600
H          8.49300       19.14400        3.62200
H          7.76000       20.04300        2.46300
H          9.12700       20.59400        3.13800
C          9.72700       23.16300        1.87500
O          9.91600       21.98200        2.16100
N         10.58000       24.10600        2.23600
H         11.42000       23.83500        2.72200
H         10.40000       25.07100        2.01300
end

basis
 * library aug-cc-pvdz
end

echo

scf
 direct
end

task scf energy
================================================================================

 Output coordinates in angstroms (scale by  1.889725989 to convert to a.u.)

  No.       Tag          Charge          X              Y              Z
 ---- ---------------- ---------- -------------- -------------- --------------
    1 H                    1.0000    -4.87421063     1.44005734    -0.27876550
    2 C                    6.0000    -3.99349439     2.01338090    -0.56380764
    3 H                    1.0000    -4.04695573     2.99781593    -0.10007436
    4 H                    1.0000    -3.97054988     2.12561686    -1.64720491
    5 C                    6.0000    -2.75045761     1.29751967    -0.09357339
    6 O                    8.0000    -1.96849740     1.85864364     0.67293305
    7 N                    7.0000    -2.53773920     0.07117474    -0.58576338
    8 H                    1.0000    -3.23623164    -0.27432331    -1.23026738
    9 C                    6.0000    -1.47359819    -0.87522438    -0.16824138
   10 H                    1.0000    -1.51033896    -0.91166717     0.92171781
   11 C                    6.0000    -1.81023201    -2.28823884    -0.71570902
   12 H                    1.0000    -2.75977821    -2.25465962    -1.25263310
   13 H                    1.0000    -1.06237058    -2.59317769    -1.44903539
   14 C                    6.0000    -1.94632714    -3.38790712     0.35924112
   15 H                    1.0000    -2.77519156    -3.12626857     1.01794442
   16 H                    1.0000    -2.20802832    -4.32008373    -0.14211731
   17 C                    6.0000    -0.70194302    -3.63898989     1.22822362
   18 H                    1.0000    -0.50165954    -2.74761928     1.82566397
   19 H                    1.0000    -0.91340338    -4.45226302     1.92515140
   20 N                    7.0000     0.49627245    -3.94184223     0.42160404
   21 H                    1.0000     0.97665317    -3.12652210     0.05582071
   22 C                    6.0000     1.00945606    -5.12310038     0.12143447
   23 N                    7.0000     2.08555744    -5.19583095    -0.60721641
   24 H                    1.0000     2.52845339    -4.35461160    -0.93065446
   25 H                    1.0000     2.48451033    -6.08938240    -0.83654671
   26 N                    7.0000     0.47704548    -6.24309869     0.52466237
   27 H                    1.0000     0.89265166    -7.12578002     0.28540691
   28 H                    1.0000    -0.34834624    -6.21521769     1.09408326
   29 C                    6.0000    -0.02043919    -0.45605686    -0.49526206
   30 O                    8.0000     0.89548155    -1.26506364    -0.34462599
   31 N                    7.0000     0.20392721     0.78909471    -0.92997724
   32 H                    1.0000    -0.60632321     1.38460158    -0.99608181
   33 C                    6.0000     1.53177454     1.41089073    -1.10166063
   34 H                    1.0000     2.11872110     0.76230777    -1.75591659
   35 C                    6.0000     1.39178860     2.77974551    -1.81183703
   36 H                    1.0000     2.38125655     3.21474693    -1.96151651
   37 H                    1.0000     0.98137714     2.58578047    -2.80558750
   38 C                    6.0000     0.47564177     3.82495287    -1.13550681
   39 H                    1.0000     0.16504812     4.54121259    -1.89696371
   40 H                    1.0000    -0.43317910     3.34051495    -0.78777916
   41 C                    6.0000     1.12902943     4.62965417     0.00827961
   42 H                    1.0000     2.02458532     4.13295927     0.37561030
   43 H                    1.0000     1.45734666     5.58853269    -0.39859724
   44 C                    6.0000     0.18508738     4.90604955     1.19150782
   45 H                    1.0000     0.70575842     5.57663809     1.88250615
   46 H                    1.0000    -0.70539214     5.42822188     0.82966631
   47 N                    7.0000    -0.20036724     3.66305704     1.91073474
   48 H                    1.0000    -0.61416838     3.86336786     2.80908444
   49 H                    1.0000    -0.87007267     3.11425613     1.37307761
   50 H                    1.0000     0.60666356     3.05384677     2.03904744
   51 C                    6.0000     2.29666057     1.49908384     0.22754189
   52 O                    8.0000     1.69914790     1.73993639     1.27503732
   53 N                    7.0000     3.61185344     1.37068192     0.19656355
   54 H                    1.0000     4.12240175     1.43469884     1.06286561
   55 H                    1.0000     4.08818882     1.19505481    -0.67269690

         Total SCF energy =  -1153.949414732009

 Vector  193  Occ=0.000000D+00  E= 2.881392D-01

 Vector  194  Occ=0.000000D+00  E= 2.912364D-01

 Vector  195  Occ=0.000000D+00  E= 2.945608D-01

 Vector  196  Occ=0.000000D+00  E= 2.962305D-01

 Vector  197  Occ=0.000000D+00  E= 2.971028D-01

 Vector  198  Occ=0.000000D+00  E= 3.006945D-01

 Vector  199  Occ=0.000000D+00  E= 3.074861D-01

 Vector  200  Occ=0.000000D+00  E= 3.081358D-01

 Vector  201  Occ=0.000000D+00  E= 3.116634D-01

 Vector  202  Occ=0.000000D+00  E= 3.140729D-01

 Vector  203  Occ=0.000000D+00  E= 3.143440D-01

 Vector  204  Occ=0.000000D+00  E= 3.211454D-01

 Vector  205  Occ=0.000000D+00  E= 3.222747D-01

 Vector  206  Occ=0.000000D+00  E= 3.280684D-01

 Vector  207  Occ=0.000000D+00  E= 3.310377D-01

 Vector  208  Occ=0.000000D+00  E= 3.320489D-01

 Vector  209  Occ=0.000000D+00  E= 3.370231D-01

 Vector  210  Occ=0.000000D+00  E= 3.392406D-01

 Vector  211  Occ=0.000000D+00  E= 3.431579D-01

 Vector  212  Occ=0.000000D+00  E= 3.439120D-01

 Vector  213  Occ=0.000000D+00  E= 3.469072D-01

 Vector  214  Occ=0.000000D+00  E= 3.486246D-01

 Vector  215  Occ=0.000000D+00  E= 3.496292D-01

 Vector  216  Occ=0.000000D+00  E= 3.546602D-01

 Vector  217  Occ=0.000000D+00  E= 3.569775D-01

 Vector  218  Occ=0.000000D+00  E= 3.611381D-01

 Vector  219  Occ=0.000000D+00  E= 3.623720D-01

 Vector  220  Occ=0.000000D+00  E= 3.628120D-01

 Vector  221  Occ=0.000000D+00  E= 3.641099D-01

 Vector  222  Occ=0.000000D+00  E= 3.674751D-01

 Vector  223  Occ=0.000000D+00  E= 3.695292D-01

 Vector  224  Occ=0.000000D+00  E= 3.713279D-01

 Vector  225  Occ=0.000000D+00  E= 3.774438D-01

 Vector  226  Occ=0.000000D+00  E= 3.788811D-01

 Vector  227  Occ=0.000000D+00  E= 3.822236D-01

 Vector  228  Occ=0.000000D+00  E= 3.827462D-01

 Vector  229  Occ=0.000000D+00  E= 3.876587D-01

 Vector  230  Occ=0.000000D+00  E= 3.919145D-01

 Vector  231  Occ=0.000000D+00  E= 3.923509D-01

 Vector  232  Occ=0.000000D+00  E= 3.956597D-01

 Vector  233  Occ=0.000000D+00  E= 3.966479D-01

 Vector  234  Occ=0.000000D+00  E= 4.007484D-01

 Vector  235  Occ=0.000000D+00  E= 4.050300D-01

 Vector  236  Occ=0.000000D+00  E= 4.072121D-01

 Vector  237  Occ=0.000000D+00  E= 4.095464D-01

 Vector  238  Occ=0.000000D+00  E= 4.111158D-01

 Vector  239  Occ=0.000000D+00  E= 4.135050D-01

 Vector  240  Occ=0.000000D+00  E= 4.149451D-01

 Vector  241  Occ=0.000000D+00  E= 4.199430D-01

 Vector  242  Occ=0.000000D+00  E= 4.214374D-01

 Vector  243  Occ=0.000000D+00  E= 4.246345D-01

 Vector  244  Occ=0.000000D+00  E= 4.268161D-01

 Vector  245  Occ=0.000000D+00  E= 4.282111D-01

 Vector  246  Occ=0.000000D+00  E= 4.301531D-01

 Vector  247  Occ=0.000000D+00  E= 4.353064D-01

 Vector  248  Occ=0.000000D+00  E= 4.358789D-01

 Vector  249  Occ=0.000000D+00  E= 4.374532D-01

 Vector  250  Occ=0.000000D+00  E= 4.396210D-01

 Vector  251  Occ=0.000000D+00  E= 4.426436D-01

 Vector  252  Occ=0.000000D+00  E= 4.471711D-01

 Vector  253  Occ=0.000000D+00  E= 4.481811D-01

 Vector  254  Occ=0.000000D+00  E= 4.529163D-01

 Vector  255  Occ=0.000000D+00  E= 4.537089D-01

 Vector  256  Occ=0.000000D+00  E= 4.561568D-01

 Vector  257  Occ=0.000000D+00  E= 4.569445D-01

 Vector  258  Occ=0.000000D+00  E= 4.589735D-01

 Vector  259  Occ=0.000000D+00  E= 4.647599D-01

 Vector  260  Occ=0.000000D+00  E= 4.659705D-01

 Vector  261  Occ=0.000000D+00  E= 4.703590D-01

 Vector  262  Occ=0.000000D+00  E= 4.714499D-01

 Vector  263  Occ=0.000000D+00  E= 4.726362D-01

 Vector  264  Occ=0.000000D+00  E= 4.760477D-01

 Vector  265  Occ=0.000000D+00  E= 4.785832D-01

 Vector  266  Occ=0.000000D+00  E= 4.816149D-01

 Vector  267  Occ=0.000000D+00  E= 4.860078D-01

 Vector  268  Occ=0.000000D+00  E= 4.872236D-01

 Vector  269  Occ=0.000000D+00  E= 4.898910D-01

 Vector  270  Occ=0.000000D+00  E= 4.962368D-01

 Vector  271  Occ=0.000000D+00  E= 4.982627D-01

 Vector  272  Occ=0.000000D+00  E= 5.007600D-01

       Multipole analysis of the density wrt the origin
       ------------------------------------------------

     L   x y z        total         open         nuclear
     -   - - -        -----         ----         -------
     0   0 0 0     -0.000000      0.000000    188.000000

     1   1 0 0     -0.188478      0.000000     -0.000000
     1   0 1 0      2.639125      0.000000      0.000000
     1   0 0 1      0.222603      0.000000      0.000000

     2   2 0 0   -146.785533      0.000000   2367.657614
     2   1 1 0      8.442419      0.000000     14.647934
     2   1 0 1      1.731324      0.000000     -6.044477
     2   0 2 0   -140.999271      0.000000   7119.699081
     2   0 1 1     -4.967932      0.000000     -9.381641

 Total times  cpu:    36348.7s     wall:    36474.0s
