============================== echo of input deck ==============================
start ARG_ARG_3
geometry
H         12.11700        5.45700       -5.87900
C         13.00800        5.88800       -5.42300
H         13.56100        6.45300       -6.17100
H         13.63200        5.08400       -5.03500
C         12.59400        6.79600       -4.29000
O         11.40900        6.96100       -4.02700
N         13.56800        7.43600       -3.63200
H         14.51300        7.24300       -3.93300
C         13.38500        8.21100       -2.38100
H         12.93800        7.52700       -1.65500
C         14.78300        8.61200       -1.85500
H         15.43000        7.73500       -1.93100
H         15.21300        9.38700       -2.49200
C         14.81500        9.05700       -0.37900
H         13.95100        8.64500        0.14300
H         15.70800        8.64100        0.08900
C         14.86400       10.58400       -0.20100
H         15.84300       10.94000       -0.52900
H         14.11900       11.06900       -0.83200
N         14.65500       10.97700        1.20700
H         15.48300       11.18500        1.74100
C         13.49600       11.09200        1.83600
N         12.35100       10.85400        1.25800
H         12.33100       10.56200        0.28300
H         11.49000       10.94000        1.76000
N         13.46600       11.45300        3.08800
H         12.58900       11.53700        3.56900
H         14.32000       11.64600        3.58300
C         12.40300        9.39900       -2.46700
O         12.05300        9.96700       -1.43100
N         11.93200        9.76300       -3.66700
H         12.24800        9.20300       -4.44600
C         10.84000       10.72800       -3.91400
H         11.00200       11.60200       -3.28100
C         10.92100       11.17600       -5.39200
H         11.92700       11.56500       -5.56100
H         10.79300       10.31200       -6.04800
C          9.92900       12.28500       -5.80100
H          9.68900       12.89900       -4.93200
H         10.41500       12.92900       -6.53600
C          8.64000       11.73800       -6.44000
H          8.89400       11.29900       -7.40700
H          8.21700       10.93900       -5.83100
N          7.62800       12.79400       -6.64600
H          7.59100       13.20400       -7.56500
C          6.72300       13.21300       -5.77500
N          6.66100       12.77500       -4.54800
H          7.34100       12.09400       -4.21800
H          5.95400       13.09800       -3.91700
N          5.84300       14.10700       -6.12900
H          5.15200       14.42100       -5.47200
H          5.83600       14.47300       -7.06500
C          9.44900       10.18700       -3.53300
O          8.51400       10.97100       -3.39800
N          9.27000        8.88600       -3.37100
H          8.35700        8.54900       -3.11400
H         10.03300        8.23800       -3.52400
end

basis
 * library aug-cc-pvdz
end

echo

scf
 direct
end

task scf energy
================================================================================

 Output coordinates in angstroms (scale by  1.889725989 to convert to a.u.)

  No.       Tag          Charge          X              Y              Z
 ---- ---------------- ---------- -------------- -------------- --------------
    1 H                    1.0000    -5.58688577     0.27204196    -0.89754525
    2 C                    6.0000    -5.18019152     1.05861372    -0.26234240
    3 H                    1.0000    -5.35008681     0.80515722     0.78237450
    4 H                    1.0000    -5.67883657     1.99787531    -0.49787750
    5 C                    6.0000    -3.70009874     1.19345698    -0.52822143
    6 O                    8.0000    -3.14570568     0.46401965    -1.34135642
    7 N                    7.0000    -3.02959988     2.10097291     0.19156056
    8 H                    1.0000    -3.57467043     2.64441848     0.84611385
    9 C                    6.0000    -1.62709937     2.51600053    -0.05310126
   10 H                    1.0000    -1.58373942     2.86820603    -1.08693500
   11 C                    6.0000    -1.31314425     3.71684330     0.86955243
   12 H                    1.0000    -2.16162673     4.40328707     0.82070135
   13 H                    1.0000    -1.22902928     3.38013546     1.90436956
   14 C                    6.0000    -0.06495170     4.52949329     0.47050312
   15 H                    1.0000     0.14795804     4.37162222    -0.58707438
   16 H                    1.0000    -0.28416023     5.58943883     0.60463763
   17 C                    6.0000     1.17642772     4.19970935     1.31669086
   18 H                    1.0000     1.01708781     4.57898888     2.32838193
   19 H                    1.0000     1.31198234     3.12099499     1.39676129
   20 N                    7.0000     2.39747573     4.81426991     0.75816507
   21 H                    1.0000     2.70046898     5.67469502     1.18462458
   22 C                    6.0000     3.13749011     4.34925457    -0.23596091
   23 N                    7.0000     2.85590020     3.24488156    -0.87064223
   24 H                    1.0000     2.03258629     2.70827048    -0.60513941
   25 H                    1.0000     3.42778112     2.92110511    -1.62485840
   26 N                    7.0000     4.19680874     5.00304354    -0.62213318
   27 H                    1.0000     4.75766549     4.65528895    -1.37847467
   28 H                    1.0000     4.45835779     5.86211553    -0.16916805
   29 C                    6.0000    -0.57211475     1.39209845     0.03005872
   30 O                    8.0000     0.57884962     1.61759006    -0.34790230
   31 N                    7.0000    -0.94439826     0.18812754     0.48414685
   32 H                    1.0000    -1.92104778     0.09765842     0.72553460
   33 C                    6.0000    -0.13197001    -1.04576620     0.43762166
   34 H                    1.0000     0.88048318    -0.80496952     0.76589672
   35 C                    6.0000    -0.73950973    -2.05800528     1.43662943
   36 H                    1.0000    -0.78085210    -1.56975768     2.41224364
   37 H                    1.0000    -1.76652124    -2.29219693     1.14746228
   38 C                    6.0000     0.05673780    -3.36761463     1.61590355
   39 H                    1.0000     1.11291052    -3.18327577     1.41521631
   40 H                    1.0000    -0.03091684    -3.68523875     2.65637872
   41 C                    6.0000    -0.46150109    -4.51640732     0.73230024
   42 H                    1.0000    -1.45132135    -4.80707688     1.09020114
   43 H                    1.0000    -0.58263282    -4.18484462    -0.29901168
   44 N                    7.0000     0.42656346    -5.69596785     0.77346230
   45 H                    1.0000     0.16668653    -6.42857630     1.41360201
   46 C                    6.0000     1.48790554    -5.92281430     0.01496333
   47 N                    7.0000     1.94170842    -5.05811731    -0.84966321
   48 H                    1.0000     1.48611515    -4.15389022    -0.94900679
   49 H                    1.0000     2.73669918    -5.26509152    -1.42193095
   50 N                    7.0000     2.13267085    -7.05098394     0.11725197
   51 H                    1.0000     2.93359176    -7.22739997    -0.46165137
   52 H                    1.0000     1.82253339    -7.75920220     0.75939109
   53 C                    6.0000     0.01496827    -1.62718726    -0.98120944
   54 O                    8.0000     0.89564840    -2.45245848    -1.20578889
   55 N                    7.0000    -0.81568996    -1.24653137    -1.93828519
   56 H                    1.0000    -0.70139485    -1.62944365    -2.86213681
   57 H                    1.0000    -1.56728871    -0.59746182    -1.74006804

         Total SCF energy =  -1262.898353966209

 Vector  209  Occ=0.000000D+00  E= 3.037711D-01

 Vector  210  Occ=0.000000D+00  E= 3.081496D-01

 Vector  211  Occ=0.000000D+00  E= 3.092208D-01

 Vector  212  Occ=0.000000D+00  E= 3.113224D-01

 Vector  213  Occ=0.000000D+00  E= 3.140372D-01

 Vector  214  Occ=0.000000D+00  E= 3.153307D-01

 Vector  215  Occ=0.000000D+00  E= 3.198949D-01

 Vector  216  Occ=0.000000D+00  E= 3.219874D-01

 Vector  217  Occ=0.000000D+00  E= 3.246661D-01

 Vector  218  Occ=0.000000D+00  E= 3.263855D-01

 Vector  219  Occ=0.000000D+00  E= 3.283622D-01

 Vector  220  Occ=0.000000D+00  E= 3.332204D-01

 Vector  221  Occ=0.000000D+00  E= 3.341234D-01

 Vector  222  Occ=0.000000D+00  E= 3.360598D-01

 Vector  223  Occ=0.000000D+00  E= 3.396938D-01

 Vector  224  Occ=0.000000D+00  E= 3.439045D-01

 Vector  225  Occ=0.000000D+00  E= 3.464835D-01

 Vector  226  Occ=0.000000D+00  E= 3.503909D-01

 Vector  227  Occ=0.000000D+00  E= 3.523769D-01

 Vector  228  Occ=0.000000D+00  E= 3.531570D-01

 Vector  229  Occ=0.000000D+00  E= 3.540050D-01

 Vector  230  Occ=0.000000D+00  E= 3.567298D-01

 Vector  231  Occ=0.000000D+00  E= 3.613052D-01

 Vector  232  Occ=0.000000D+00  E= 3.631750D-01

 Vector  233  Occ=0.000000D+00  E= 3.640471D-01

 Vector  234  Occ=0.000000D+00  E= 3.662240D-01

 Vector  235  Occ=0.000000D+00  E= 3.696147D-01

 Vector  236  Occ=0.000000D+00  E= 3.722162D-01

 Vector  237  Occ=0.000000D+00  E= 3.746238D-01

 Vector  238  Occ=0.000000D+00  E= 3.751977D-01

 Vector  239  Occ=0.000000D+00  E= 3.775957D-01

 Vector  240  Occ=0.000000D+00  E= 3.824046D-01

 Vector  241  Occ=0.000000D+00  E= 3.856630D-01

 Vector  242  Occ=0.000000D+00  E= 3.860626D-01

 Vector  243  Occ=0.000000D+00  E= 3.903489D-01

 Vector  244  Occ=0.000000D+00  E= 3.921389D-01

 Vector  245  Occ=0.000000D+00  E= 3.942916D-01

 Vector  246  Occ=0.000000D+00  E= 3.968831D-01

 Vector  247  Occ=0.000000D+00  E= 3.978793D-01

 Vector  248  Occ=0.000000D+00  E= 4.008366D-01

 Vector  249  Occ=0.000000D+00  E= 4.019980D-01

 Vector  250  Occ=0.000000D+00  E= 4.050810D-01

 Vector  251  Occ=0.000000D+00  E= 4.057601D-01

 Vector  252  Occ=0.000000D+00  E= 4.088981D-01

 Vector  253  Occ=0.000000D+00  E= 4.106799D-01

 Vector  254  Occ=0.000000D+00  E= 4.138511D-01

 Vector  255  Occ=0.000000D+00  E= 4.176001D-01

 Vector  256  Occ=0.000000D+00  E= 4.200682D-01

 Vector  257  Occ=0.000000D+00  E= 4.222271D-01

 Vector  258  Occ=0.000000D+00  E= 4.238948D-01

 Vector  259  Occ=0.000000D+00  E= 4.266557D-01

 Vector  260  Occ=0.000000D+00  E= 4.279451D-01

 Vector  261  Occ=0.000000D+00  E= 4.292422D-01

 Vector  262  Occ=0.000000D+00  E= 4.319329D-01

 Vector  263  Occ=0.000000D+00  E= 4.365806D-01

 Vector  264  Occ=0.000000D+00  E= 4.389963D-01

 Vector  265  Occ=0.000000D+00  E= 4.429470D-01

 Vector  266  Occ=0.000000D+00  E= 4.454254D-01

 Vector  267  Occ=0.000000D+00  E= 4.482868D-01

 Vector  268  Occ=0.000000D+00  E= 4.504950D-01

 Vector  269  Occ=0.000000D+00  E= 4.518222D-01

 Vector  270  Occ=0.000000D+00  E= 4.522229D-01

 Vector  271  Occ=0.000000D+00  E= 4.550643D-01

 Vector  272  Occ=0.000000D+00  E= 4.568165D-01

 Vector  273  Occ=0.000000D+00  E= 4.594144D-01

 Vector  274  Occ=0.000000D+00  E= 4.606699D-01

 Vector  275  Occ=0.000000D+00  E= 4.649382D-01

 Vector  276  Occ=0.000000D+00  E= 4.655448D-01

 Vector  277  Occ=0.000000D+00  E= 4.700885D-01

 Vector  278  Occ=0.000000D+00  E= 4.733417D-01

 Vector  279  Occ=0.000000D+00  E= 4.794632D-01

 Vector  280  Occ=0.000000D+00  E= 4.803312D-01

 Vector  281  Occ=0.000000D+00  E= 4.825977D-01

 Vector  282  Occ=0.000000D+00  E= 4.847103D-01

 Vector  283  Occ=0.000000D+00  E= 4.866167D-01

 Vector  284  Occ=0.000000D+00  E= 4.913286D-01

 Vector  285  Occ=0.000000D+00  E= 4.921043D-01

 Vector  286  Occ=0.000000D+00  E= 4.967282D-01

 Vector  287  Occ=0.000000D+00  E= 4.984686D-01

 Vector  288  Occ=0.000000D+00  E= 5.021713D-01

       Multipole analysis of the density wrt the origin
       ------------------------------------------------

     L   x y z        total         open         nuclear
     -   - - -        -----         ----         -------
     0   0 0 0     -0.000000      0.000000    202.000000

     1   1 0 0     -2.551174      0.000000     -0.000000
     1   0 1 0     -0.121224      0.000000     -0.000000
     1   0 0 1     -0.579186      0.000000     -0.000000

     2   2 0 0   -150.026353      0.000000   3638.286058
     2   1 1 0    -12.369603      0.000000     -4.465817
     2   1 0 1      0.259080      0.000000    -24.128574
     2   0 2 0   -159.272008      0.000000   9740.105729
     2   0 1 1      2.398842      0.000000     -4.207489

 Total times  cpu:    32923.3s     wall:    32999.0s
