============================== echo of input deck ==============================
start ARG_LYS_4
geometry
H         14.83200        9.90000       -0.23300
C         14.55300        8.86500       -0.04000
H         14.89700        8.57500        0.95300
H         15.02300        8.21500       -0.77800
C         13.05200        8.71400       -0.11700
O         12.55000        7.98800       -0.97000
N         12.33000        9.42800        0.75000
H         12.84800       10.03100        1.37400
C         10.86200        9.36500        0.91700
H         10.62300        8.35600        1.25400
C         10.48000       10.37400        2.02600
H         11.15900       10.22500        2.86900
H         10.66400       11.38200        1.64800
C          9.04600       10.34000        2.59500
H          8.99400       11.10900        3.36700
H          8.32700       10.60900        1.82200
C          8.65200        8.98900        3.22200
H          8.22100        8.33800        2.46000
H          9.55600        8.50400        3.59900
N          7.72300        9.14700        4.36300
H          8.15600        9.25800        5.26500
C          6.39900        9.10600        4.36700
N          5.67800        8.98400        3.28900
H          6.11700        8.95900        2.37400
H          4.67900        8.93700        3.34600
N          5.75400        9.18900        5.49700
H          6.25100        9.27700        6.36700
H          4.75100        9.15600        5.51000
C         10.08100        9.61200       -0.39000
O         10.55300       10.27500       -1.31500
N          8.85500        9.08300       -0.43800
H          8.58200        8.50900        0.34600
C          7.76400        9.43900       -1.36600
H          7.94600       10.43800       -1.77200
C          7.66900        8.44200       -2.54400
H          7.61400        7.41700       -2.17000
H          6.74100        8.63900       -3.08200
C          8.81200        8.58100       -3.56600
H          8.40000        8.43200       -4.56600
H          9.20600        9.59700       -3.53000
C          9.94200        7.55700       -3.37300
H         10.20300        7.45800       -2.31900
H          9.59100        6.58500       -3.72600
C         11.18200        7.96300       -4.17900
H         11.81500        7.08000       -4.31500
H         10.86500        8.30700       -5.16900
N         11.95200        9.01800       -3.47600
H         12.35000        8.62400       -2.62500
H         12.69800        9.38700       -4.04800
H         11.34700        9.77100       -3.15700
C          6.44300        9.52100       -0.58600
O          6.38500        9.11200        0.57500
N          5.39300       10.06200       -1.18200
H          4.52200       10.11800       -0.67900
H          5.46100       10.39400       -2.13100
end

basis
 * library aug-cc-pvdz
end

echo

scf
 direct
end

task scf energy
================================================================================

 Output coordinates in angstroms (scale by  1.889725989 to convert to a.u.)

  No.       Tag          Charge          X              Y              Z
 ---- ---------------- ---------- -------------- -------------- --------------
    1 H                    1.0000     3.94743538     3.90945674     0.93267378
    2 C                    6.0000     3.81834902     3.67106800    -0.12223025
    3 H                    1.0000     4.71959244     3.18642258    -0.49821443
    4 H                    1.0000     3.65105470     4.58795219    -0.68736739
    5 C                    6.0000     2.63759144     2.74584099    -0.29970572
    6 O                    8.0000     1.66356487     3.11009559    -0.95184053
    7 N                    7.0000     2.70477414     1.56035104     0.31092432
    8 H                    1.0000     3.53343160     1.38762916     0.86301394
    9 C                    6.0000     1.71433970     0.46799134     0.19835469
   10 H                    1.0000     1.71172055     0.14683903    -0.84357878
   11 C                    6.0000     2.20979236    -0.69753741     1.08714904
   12 H                    1.0000     3.26886955    -0.86076513     0.87359997
   13 H                    1.0000     2.14408029    -0.38230508     2.13075553
   14 C                    6.0000     1.51228893    -2.06866635     0.96562793
   15 H                    1.0000     2.02029676    -2.74392603     1.65555649
   16 H                    1.0000     0.47522120    -1.99444867     1.29094818
   17 C                    6.0000     1.56980999    -2.67839932    -0.44804920
   18 H                    1.0000     0.71262996    -2.34121926    -1.03264994
   19 H                    1.0000     2.47302795    -2.31676250    -0.94603125
   20 N                    7.0000     1.63768359    -4.15643487    -0.42178001
   21 H                    1.0000     2.56391520    -4.54932613    -0.38793524
   22 C                    6.0000     0.64806915    -5.03404193    -0.49348854
   23 N                    7.0000    -0.61062199    -4.70040590    -0.52802269
   24 H                    1.0000    -0.88920012    -3.72694634    -0.45493562
   25 H                    1.0000    -1.32232578    -5.40131279    -0.60329724
   26 N                    7.0000     0.91760187    -6.30899474    -0.53424922
   27 H                    1.0000     1.86944910    -6.63364755    -0.51874442
   28 H                    1.0000     0.17442692    -6.98106981    -0.59146022
   29 C                    6.0000     0.27633044     0.89990862     0.55161921
   30 O                    8.0000     0.04783730     1.84278201     1.31106550
   31 N                    7.0000    -0.69712004     0.16844749     0.00154670
   32 H                    1.0000    -0.40898305    -0.54537803    -0.65120992
   33 C                    6.0000    -2.11101493     0.10355096     0.41974603
   34 H                    1.0000    -2.19717964     0.43905204     1.45703850
   35 C                    6.0000    -3.00838828     1.00292847    -0.46147992
   36 H                    1.0000    -2.84962346     0.77771471    -1.51864523
   37 H                    1.0000    -4.04955475     0.77011729    -0.23518734
   38 C                    6.0000    -2.82358078     2.50859847    -0.19869100
   39 H                    1.0000    -3.80075512     2.99156865    -0.26045754
   40 H                    1.0000    -2.45774616     2.65471095     0.81797225
   41 C                    6.0000    -1.89822058     3.20383611    -1.21016426
   42 H                    1.0000    -1.00978578     2.60216605    -1.40385150
   43 H                    1.0000    -2.43971710     3.31803191    -2.15161783
   44 C                    6.0000    -1.48542439     4.59004960    -0.70018048
   45 H                    1.0000    -1.14307718     5.18788862    -1.55121566
   46 H                    1.0000    -2.36197226     5.08567214    -0.27012567
   47 N                    7.0000    -0.39493009     4.48640174     0.29992617
   48 H                    1.0000     0.44785206     4.15217503    -0.16467230
   49 H                    1.0000    -0.19844623     5.37424263     0.73923660
   50 H                    1.0000    -0.60122637     3.78243564     1.00467334
   51 C                    6.0000    -2.57889994    -1.35955705     0.39600648
   52 O                    8.0000    -1.87266533    -2.22535559    -0.12379306
   53 N                    7.0000    -3.73371150    -1.66013431     0.96737378
   54 H                    1.0000    -4.04959716    -2.61660823     0.95472916
   55 H                    1.0000    -4.29569261    -0.93857210     1.39042723

         Total SCF energy =  -1153.950190792242

 Vector  195  Occ=0.000000D+00  E= 2.968007D-01

 Vector  196  Occ=0.000000D+00  E= 2.996170D-01

 Vector  197  Occ=0.000000D+00  E= 3.016213D-01

 Vector  198  Occ=0.000000D+00  E= 3.035669D-01

 Vector  199  Occ=0.000000D+00  E= 3.080678D-01

 Vector  200  Occ=0.000000D+00  E= 3.105795D-01

 Vector  201  Occ=0.000000D+00  E= 3.149178D-01

 Vector  202  Occ=0.000000D+00  E= 3.166164D-01

 Vector  203  Occ=0.000000D+00  E= 3.215342D-01

 Vector  204  Occ=0.000000D+00  E= 3.221338D-01

 Vector  205  Occ=0.000000D+00  E= 3.254790D-01

 Vector  206  Occ=0.000000D+00  E= 3.279645D-01

 Vector  207  Occ=0.000000D+00  E= 3.299020D-01

 Vector  208  Occ=0.000000D+00  E= 3.319892D-01

 Vector  209  Occ=0.000000D+00  E= 3.350746D-01

 Vector  210  Occ=0.000000D+00  E= 3.367633D-01

 Vector  211  Occ=0.000000D+00  E= 3.428560D-01

 Vector  212  Occ=0.000000D+00  E= 3.452505D-01

 Vector  213  Occ=0.000000D+00  E= 3.468414D-01

 Vector  214  Occ=0.000000D+00  E= 3.531091D-01

 Vector  215  Occ=0.000000D+00  E= 3.547107D-01

 Vector  216  Occ=0.000000D+00  E= 3.571278D-01

 Vector  217  Occ=0.000000D+00  E= 3.591142D-01

 Vector  218  Occ=0.000000D+00  E= 3.615351D-01

 Vector  219  Occ=0.000000D+00  E= 3.650997D-01

 Vector  220  Occ=0.000000D+00  E= 3.670059D-01

 Vector  221  Occ=0.000000D+00  E= 3.685845D-01

 Vector  222  Occ=0.000000D+00  E= 3.725125D-01

 Vector  223  Occ=0.000000D+00  E= 3.754738D-01

 Vector  224  Occ=0.000000D+00  E= 3.780353D-01

 Vector  225  Occ=0.000000D+00  E= 3.809322D-01

 Vector  226  Occ=0.000000D+00  E= 3.837871D-01

 Vector  227  Occ=0.000000D+00  E= 3.862348D-01

 Vector  228  Occ=0.000000D+00  E= 3.874992D-01

 Vector  229  Occ=0.000000D+00  E= 3.897127D-01

 Vector  230  Occ=0.000000D+00  E= 3.921929D-01

 Vector  231  Occ=0.000000D+00  E= 3.929544D-01

 Vector  232  Occ=0.000000D+00  E= 3.955479D-01

 Vector  233  Occ=0.000000D+00  E= 3.994250D-01

 Vector  234  Occ=0.000000D+00  E= 4.033383D-01

 Vector  235  Occ=0.000000D+00  E= 4.050123D-01

 Vector  236  Occ=0.000000D+00  E= 4.051493D-01

 Vector  237  Occ=0.000000D+00  E= 4.094982D-01

 Vector  238  Occ=0.000000D+00  E= 4.119617D-01

 Vector  239  Occ=0.000000D+00  E= 4.143125D-01

 Vector  240  Occ=0.000000D+00  E= 4.155894D-01

 Vector  241  Occ=0.000000D+00  E= 4.187614D-01

 Vector  242  Occ=0.000000D+00  E= 4.214477D-01

 Vector  243  Occ=0.000000D+00  E= 4.250432D-01

 Vector  244  Occ=0.000000D+00  E= 4.278432D-01

 Vector  245  Occ=0.000000D+00  E= 4.303348D-01

 Vector  246  Occ=0.000000D+00  E= 4.334458D-01

 Vector  247  Occ=0.000000D+00  E= 4.365110D-01

 Vector  248  Occ=0.000000D+00  E= 4.373066D-01

 Vector  249  Occ=0.000000D+00  E= 4.401495D-01

 Vector  250  Occ=0.000000D+00  E= 4.427454D-01

 Vector  251  Occ=0.000000D+00  E= 4.454935D-01

 Vector  252  Occ=0.000000D+00  E= 4.472278D-01

 Vector  253  Occ=0.000000D+00  E= 4.498114D-01

 Vector  254  Occ=0.000000D+00  E= 4.544553D-01

 Vector  255  Occ=0.000000D+00  E= 4.555937D-01

 Vector  256  Occ=0.000000D+00  E= 4.593854D-01

 Vector  257  Occ=0.000000D+00  E= 4.632375D-01

 Vector  258  Occ=0.000000D+00  E= 4.642350D-01

 Vector  259  Occ=0.000000D+00  E= 4.654979D-01

 Vector  260  Occ=0.000000D+00  E= 4.710096D-01

 Vector  261  Occ=0.000000D+00  E= 4.719833D-01

 Vector  262  Occ=0.000000D+00  E= 4.779746D-01

 Vector  263  Occ=0.000000D+00  E= 4.792587D-01

 Vector  264  Occ=0.000000D+00  E= 4.820789D-01

 Vector  265  Occ=0.000000D+00  E= 4.863512D-01

 Vector  266  Occ=0.000000D+00  E= 4.866833D-01

 Vector  267  Occ=0.000000D+00  E= 4.884595D-01

 Vector  268  Occ=0.000000D+00  E= 4.902859D-01

 Vector  269  Occ=0.000000D+00  E= 4.929970D-01

 Vector  270  Occ=0.000000D+00  E= 4.964322D-01

 Vector  271  Occ=0.000000D+00  E= 4.969310D-01

 Vector  272  Occ=0.000000D+00  E= 4.992622D-01

 Vector  273  Occ=0.000000D+00  E= 4.997896D-01

 Vector  274  Occ=0.000000D+00  E= 5.028876D-01

       Multipole analysis of the density wrt the origin
       ------------------------------------------------

     L   x y z        total         open         nuclear
     -   - - -        -----         ----         -------
     0   0 0 0     -0.000000      0.000000    188.000000

     1   1 0 0     -0.884102      0.000000     -0.000000
     1   0 1 0      3.181860      0.000000     -0.000000
     1   0 0 1     -0.317514      0.000000      0.000000

     2   2 0 0   -142.640169      0.000000   3024.058816
     2   1 1 0      2.918872      0.000000    -34.402097
     2   1 0 1      3.332885      0.000000     13.485929
     2   0 2 0   -153.752434      0.000000   6639.651473
     2   0 1 1     -4.923486      0.000000    -10.187606

 Total times  cpu:    38079.5s     wall:    38156.5s
