============================== echo of input deck ==============================
start ARG_ARG_0
geometry
H          6.79800        5.57000       -6.91100
C          7.41500        6.18200       -6.25400
H          7.84400        7.00100       -6.83200
H          8.21700        5.57600       -5.83400
C          6.56200        6.75100       -5.14600
O          6.45500        7.96300       -5.00400
N          5.97800        5.88000       -4.31400
H          6.13700        4.90000       -4.50700
C          4.96000        6.23000       -3.29400
H          4.15200        6.73500       -3.82600
C          4.39300        4.91600       -2.70800
H          4.21800        4.23000       -3.53900
H          5.13100        4.44900       -2.05300
C          3.04700        5.07000       -1.97100
H          2.54600        5.97500       -2.31500
H          2.41000        4.22400       -2.23400
C          3.18500        5.09100       -0.43900
H          3.46600        4.09000       -0.10300
H          3.98200        5.76800       -0.13500
N          1.92100        5.48300        0.21600
H          1.35100        4.73400        0.57500
C          1.46200        6.71300        0.38400
N          2.10500        7.77000       -0.03100
H          2.99700        7.66000       -0.50900
H          1.72900        8.68800        0.09700
N          0.32000        6.90800        0.98100
H         -0.03300        7.83900        1.10500
H         -0.21800        6.12800        1.31700
C          5.41500        7.23500       -2.21300
O          4.58200        7.70900       -1.44000
N          6.70600        7.59000       -2.16700
H          7.29500        7.17600       -2.87500
C          7.27800        8.69200       -1.36500
H          6.88800        8.61900       -0.34900
C          8.81300        8.50900       -1.33100
H          9.03700        7.57200       -0.81600
H          9.17300        8.41100       -2.35700
C          9.63300        9.63200       -0.66600
H         10.68600        9.34700       -0.68700
H          9.53500       10.54200       -1.25900
C          9.23800        9.92300        0.79200
H          8.16200       10.08300        0.86900
H          9.48600        9.05100        1.40100
N          9.94700       11.10500        1.32500
H         10.76400       10.92300        1.88400
C          9.60900       12.37700        1.16600
N         10.32200       13.31500        1.72400
H         11.12700       13.08300        2.27800
H         10.06800       14.27800        1.60200
N          8.57900       12.75600        0.46100
H          8.00700       12.06400       -0.01700
H          8.35000       13.72600        0.35800
C          6.87400       10.08900       -1.87500
O          6.95500       11.04900       -1.11400
N          6.45000       10.23900       -3.12000
H          6.18900       11.15900       -3.43700
H          6.41800        9.44900       -3.75300
end

basis
 * library aug-cc-pvdz
end

echo

scf
 direct
end

task scf energy
================================================================================

 Output coordinates in angstroms (scale by  1.889725989 to convert to a.u.)

  No.       Tag          Charge          X              Y              Z
 ---- ---------------- ---------- -------------- -------------- --------------
    1 H                    1.0000     5.61739624    -2.53022023    -0.27042286
    2 C                    6.0000     5.21465917    -1.53389029    -0.09150528
    3 H                    1.0000     5.72615115    -0.82291284    -0.74094583
    4 H                    1.0000     5.37528718    -1.25446307     0.94914792
    5 C                    6.0000     3.73872338    -1.52165707    -0.40851931
    6 O                    8.0000     3.29460045    -0.77434699    -1.27156014
    7 N                    7.0000     2.94918693    -2.31976530     0.32057356
    8 H                    1.0000     3.40926238    -2.88979753     1.01794279
    9 C                    6.0000     1.51881779    -2.58988369     0.03719363
   10 H                    1.0000     1.47328199    -2.96545872    -0.98641903
   11 C                    6.0000     1.04614894    -3.72187747     0.97881735
   12 H                    1.0000     1.82376632    -4.48795275     0.99371295
   13 H                    1.0000     0.94524445    -3.34357615     1.99786808
   14 C                    6.0000    -0.25554923    -4.42186904     0.53814209
   15 H                    1.0000    -0.40482228    -4.27138044    -0.53117205
   16 H                    1.0000    -0.14476740    -5.49455445     0.70465754
   17 C                    6.0000    -1.49738092    -3.95510234     1.31691799
   18 H                    1.0000    -1.42438801    -4.32879816     2.34106713
   19 H                    1.0000    -1.52891586    -2.86796678     1.37255817
   20 N                    7.0000    -2.74384155    -4.45941608     0.70668152
   21 H                    1.0000    -3.15191983    -5.27688687     1.13094043
   22 C                    6.0000    -3.38158383    -3.94819114    -0.33434626
   23 N                    7.0000    -2.96039578    -2.88980746    -0.97101543
   24 H                    1.0000    -2.10482399    -2.42870595    -0.66831046
   25 H                    1.0000    -3.45449659    -2.53176307    -1.76357622
   26 N                    7.0000    -4.47639496    -4.50659410    -0.76813505
   27 H                    1.0000    -4.95907458    -4.12439457    -1.56040388
   28 H                    1.0000    -4.84272183    -5.32654570    -0.31622355
   29 C                    6.0000     0.59010447    -1.35581919     0.05088327
   30 O                    8.0000    -0.57008641    -1.46852516    -0.34578849
   31 N                    7.0000     1.08537169    -0.18231250     0.46611142
   32 H                    1.0000     2.06071776    -0.19137293     0.72726070
   33 C                    6.0000     0.42776733     1.13510512     0.33665363
   34 H                    1.0000    -0.60533746     1.04063012     0.67348290
   35 C                    6.0000     1.17026742     2.13036901     1.25807286
   36 H                    1.0000     1.04953918     1.79868092     2.29188992
   37 H                    1.0000     2.23604540     2.08920122     1.02504385
   38 C                    6.0000     0.74242803     3.60873348     1.17353915
   39 H                    1.0000     1.32531817     4.17708495     1.89996237
   40 H                    1.0000     0.99549900     3.99564924     0.18581232
   41 C                    6.0000    -0.75074782     3.85042312     1.45368550
   42 H                    1.0000    -1.36409995     3.19675548     0.83253915
   43 H                    1.0000    -0.95460515     3.60019373     2.49704376
   44 N                    7.0000    -1.13241023     5.25681965     1.20817259
   45 H                    1.0000    -1.17816518     5.85610606     2.01554876
   46 C                    6.0000    -1.44395852     5.80727845     0.04307955
   47 N                    7.0000    -1.79012431     7.06294272    -0.01217886
   48 H                    1.0000    -1.82609607     7.61976051     0.82294088
   49 H                    1.0000    -2.02370815     7.48067063    -0.89405810
   50 N                    7.0000    -1.41967102     5.14938115    -1.08304089
   51 H                    1.0000    -1.12975665     4.17455186    -1.09680775
   52 H                    1.0000    -1.65909180     5.59409475    -1.94840642
   53 C                    6.0000     0.35519806     1.63862269    -1.11803835
   54 O                    8.0000    -0.46921086     2.49973944    -1.41148317
   55 N                    7.0000     1.17846828     1.14353876    -2.02876282
   56 H                    1.0000     1.11704267     1.48313109    -2.97529012
   57 H                    1.0000     1.87912460     0.45834355    -1.77302617

         Total SCF energy =  -1262.901363150100

 Vector  209  Occ=0.000000D+00  E= 3.040137D-01

 Vector  210  Occ=0.000000D+00  E= 3.060525D-01

 Vector  211  Occ=0.000000D+00  E= 3.112102D-01

 Vector  212  Occ=0.000000D+00  E= 3.117576D-01

 Vector  213  Occ=0.000000D+00  E= 3.153837D-01

 Vector  214  Occ=0.000000D+00  E= 3.182490D-01

 Vector  215  Occ=0.000000D+00  E= 3.197989D-01

 Vector  216  Occ=0.000000D+00  E= 3.237443D-01

 Vector  217  Occ=0.000000D+00  E= 3.257378D-01

 Vector  218  Occ=0.000000D+00  E= 3.282172D-01

 Vector  219  Occ=0.000000D+00  E= 3.306590D-01

 Vector  220  Occ=0.000000D+00  E= 3.321490D-01

 Vector  221  Occ=0.000000D+00  E= 3.368576D-01

 Vector  222  Occ=0.000000D+00  E= 3.403477D-01

 Vector  223  Occ=0.000000D+00  E= 3.426149D-01

 Vector  224  Occ=0.000000D+00  E= 3.448996D-01

 Vector  225  Occ=0.000000D+00  E= 3.467954D-01

 Vector  226  Occ=0.000000D+00  E= 3.470345D-01

 Vector  227  Occ=0.000000D+00  E= 3.523389D-01

 Vector  228  Occ=0.000000D+00  E= 3.546679D-01

 Vector  229  Occ=0.000000D+00  E= 3.555999D-01

 Vector  230  Occ=0.000000D+00  E= 3.578470D-01

 Vector  231  Occ=0.000000D+00  E= 3.604414D-01

 Vector  232  Occ=0.000000D+00  E= 3.629996D-01

 Vector  233  Occ=0.000000D+00  E= 3.658986D-01

 Vector  234  Occ=0.000000D+00  E= 3.703896D-01

 Vector  235  Occ=0.000000D+00  E= 3.709069D-01

 Vector  236  Occ=0.000000D+00  E= 3.715442D-01

 Vector  237  Occ=0.000000D+00  E= 3.732524D-01

 Vector  238  Occ=0.000000D+00  E= 3.779317D-01

 Vector  239  Occ=0.000000D+00  E= 3.804030D-01

 Vector  240  Occ=0.000000D+00  E= 3.834157D-01

 Vector  241  Occ=0.000000D+00  E= 3.859569D-01

 Vector  242  Occ=0.000000D+00  E= 3.892732D-01

 Vector  243  Occ=0.000000D+00  E= 3.912235D-01

 Vector  244  Occ=0.000000D+00  E= 3.941251D-01

 Vector  245  Occ=0.000000D+00  E= 3.946014D-01

 Vector  246  Occ=0.000000D+00  E= 3.971006D-01

 Vector  247  Occ=0.000000D+00  E= 3.996897D-01

 Vector  248  Occ=0.000000D+00  E= 4.016447D-01

 Vector  249  Occ=0.000000D+00  E= 4.042281D-01

 Vector  250  Occ=0.000000D+00  E= 4.048566D-01

 Vector  251  Occ=0.000000D+00  E= 4.066214D-01

 Vector  252  Occ=0.000000D+00  E= 4.101384D-01

 Vector  253  Occ=0.000000D+00  E= 4.111166D-01

 Vector  254  Occ=0.000000D+00  E= 4.140763D-01

 Vector  255  Occ=0.000000D+00  E= 4.154767D-01

 Vector  256  Occ=0.000000D+00  E= 4.165961D-01

 Vector  257  Occ=0.000000D+00  E= 4.198277D-01

 Vector  258  Occ=0.000000D+00  E= 4.234959D-01

 Vector  259  Occ=0.000000D+00  E= 4.253921D-01

 Vector  260  Occ=0.000000D+00  E= 4.287892D-01

 Vector  261  Occ=0.000000D+00  E= 4.318804D-01

 Vector  262  Occ=0.000000D+00  E= 4.346459D-01

 Vector  263  Occ=0.000000D+00  E= 4.375489D-01

 Vector  264  Occ=0.000000D+00  E= 4.385067D-01

 Vector  265  Occ=0.000000D+00  E= 4.395928D-01

 Vector  266  Occ=0.000000D+00  E= 4.435132D-01

 Vector  267  Occ=0.000000D+00  E= 4.476028D-01

 Vector  268  Occ=0.000000D+00  E= 4.494577D-01

 Vector  269  Occ=0.000000D+00  E= 4.524207D-01

 Vector  270  Occ=0.000000D+00  E= 4.553215D-01

 Vector  271  Occ=0.000000D+00  E= 4.557527D-01

 Vector  272  Occ=0.000000D+00  E= 4.592806D-01

 Vector  273  Occ=0.000000D+00  E= 4.606042D-01

 Vector  274  Occ=0.000000D+00  E= 4.630678D-01

 Vector  275  Occ=0.000000D+00  E= 4.671526D-01

 Vector  276  Occ=0.000000D+00  E= 4.691686D-01

 Vector  277  Occ=0.000000D+00  E= 4.710965D-01

 Vector  278  Occ=0.000000D+00  E= 4.757855D-01

 Vector  279  Occ=0.000000D+00  E= 4.761850D-01

 Vector  280  Occ=0.000000D+00  E= 4.819604D-01

 Vector  281  Occ=0.000000D+00  E= 4.831911D-01

 Vector  282  Occ=0.000000D+00  E= 4.851076D-01

 Vector  283  Occ=0.000000D+00  E= 4.882460D-01

 Vector  284  Occ=0.000000D+00  E= 4.930646D-01

 Vector  285  Occ=0.000000D+00  E= 4.943249D-01

 Vector  286  Occ=0.000000D+00  E= 4.947749D-01

 Vector  287  Occ=0.000000D+00  E= 4.994510D-01

 Vector  288  Occ=0.000000D+00  E= 5.023616D-01

       Multipole analysis of the density wrt the origin
       ------------------------------------------------

     L   x y z        total         open         nuclear
     -   - - -        -----         ----         -------
     0   0 0 0      0.000000      0.000000    202.000000

     1   1 0 0      3.078421      0.000000     -0.000000
     1   0 1 0     -0.032286      0.000000      0.000000
     1   0 0 1     -0.660506      0.000000     -0.000000

     2   2 0 0   -149.525615      0.000000   3839.365839
     2   1 1 0    -12.347468      0.000000     -2.943595
     2   1 0 1      2.235720      0.000000     24.240114
     2   0 2 0   -152.486091      0.000000   9133.342776
     2   0 1 1     -4.825112      0.000000     -1.267336

 Total times  cpu:    38100.1s     wall:    38226.7s
