============================== echo of input deck ==============================
start ARG_ARG_1
geometry
H          4.54200       -5.32600        3.32300
C          5.15500       -4.47000        3.60100
H          5.08000       -4.30700        4.67500
H          4.79200       -3.58700        3.07500
C          6.59200       -4.73000        3.21800
O          6.90300       -5.78900        2.67400
N          7.48000       -3.77600        3.52000
H          7.12000       -2.93100        3.94300
C          8.90500       -3.80700        3.12300
H          8.94500       -3.95500        2.04200
C          9.56200       -2.44700        3.46100
H          8.78400       -1.68600        3.53500
H         10.03900       -2.50500        4.44100
C         10.58100       -1.92100        2.42600
H         10.04800       -1.71300        1.49700
H         10.97000       -0.97100        2.79500
C         11.77600       -2.83000        2.09300
H         11.41200       -3.70700        1.55400
H         12.44700       -2.30000        1.41500
N         12.50600       -3.27400        3.29600
H         12.20200       -4.15600        3.69900
C         13.53300       -2.69900        3.89200
N         14.00400       -3.22300        4.98200
H         14.79000       -2.82500        5.45900
H         13.52400       -4.03700        5.35600
N         14.09900       -1.61400        3.43900
H         13.76200       -1.21100        2.58400
H         14.88700       -1.21300        3.91200
C          9.68900       -4.97600        3.74200
O         10.57500       -5.50600        3.08300
N          9.35800       -5.38800        4.97800
H          8.61600       -4.87600        5.42900
C         10.02600       -6.47100        5.74700
H          9.62400       -6.46800        6.76200
C          9.66600       -7.83800        5.11400
H          9.84100       -7.79600        4.03800
H         10.31300       -8.62100        5.51200
C          8.20900       -8.25600        5.39700
H          8.16800       -8.72000        6.38300
H          7.55700       -7.38200        5.41100
C          7.67500       -9.24800        4.35300
H          8.42500      -10.01900        4.16400
H          6.77600       -9.72200        4.75300
N          7.32900       -8.54200        3.10600
H          7.34600       -7.52900        3.13600
C          6.92700       -9.04000        1.95500
N          6.83000      -10.32100        1.73300
H          7.06600      -10.96300        2.46800
H          6.51500      -10.66300        0.84400
N          6.60900       -8.21300        1.00400
H          6.29500       -8.54300        0.11000
H          6.65700       -7.22100        1.20200
C         11.54600       -6.25600        5.93200
O         12.11800       -5.24400        5.52700
N         12.21800       -7.16800        6.61600
H         13.20500       -7.03500        6.76200
H         11.75000       -7.98600        6.97000
end

basis
 * library aug-cc-pvdz
end

echo

scf
 direct
end

task scf energy
================================================================================

 Output coordinates in angstroms (scale by  1.889725989 to convert to a.u.)

  No.       Tag          Charge          X              Y              Z
 ---- ---------------- ---------- -------------- -------------- --------------
    1 H                    1.0000    -2.92274084    -3.67057347     1.96328161
    2 C                    6.0000    -3.04066357    -2.61405933     2.19920765
    3 H                    1.0000    -2.61117137    -2.41389620     3.17958573
    4 H                    1.0000    -4.10274640    -2.36925811     2.21286169
    5 C                    6.0000    -2.34426540    -1.77995163     1.15108937
    6 O                    8.0000    -1.76499724    -2.32655002     0.21310398
    7 N                    7.0000    -2.37628857    -0.45263829     1.31564274
    8 H                    1.0000    -2.90102817    -0.10042756     2.10504122
    9 C                    6.0000    -1.84797201     0.52229634     0.33606167
   10 H                    1.0000    -2.30905127     0.30531214    -0.62954113
   11 C                    6.0000    -2.25138258     1.95310742     0.76679660
   12 H                    1.0000    -3.11852541     1.89377763     1.42590530
   13 H                    1.0000    -1.44410906     2.40079458     1.34918708
   14 C                    6.0000    -2.64719077     2.90997179    -0.37950548
   15 H                    1.0000    -3.55656476     2.52732333    -0.84535214
   16 H                    1.0000    -2.89291424     3.87616048     0.06330528
   17 C                    6.0000    -1.60850791     3.14301290    -1.48947158
   18 H                    1.0000    -1.49077797     2.22021803    -2.06107921
   19 H                    1.0000    -1.99112358     3.89514445    -2.18137358
   20 N                    7.0000    -0.29296980     3.55222820    -0.96112762
   21 H                    1.0000     0.36491146     2.79972594    -0.77760217
   22 C                    6.0000     0.15905283     4.77145701    -0.73813288
   23 N                    7.0000     1.33679486     4.92135298    -0.21375525
   24 H                    1.0000     1.72233788     5.82948987    -0.03947681
   25 H                    1.0000     1.84418286     4.08019885     0.04680020
   26 N                    7.0000    -0.53012164     5.84452228    -1.01446509
   27 H                    1.0000    -1.43211451     5.74554260    -1.44296815
   28 H                    1.0000    -0.14774118     6.75556931    -0.84343153
   29 C                    6.0000    -0.32999180     0.41115191     0.11751879
   30 O                    8.0000     0.12144751     0.62262040    -1.00125761
   31 N                    7.0000     0.44499451     0.06430308     1.15967671
   32 H                    1.0000    -0.03328227    -0.08154768     2.03494117
   33 C                    6.0000     1.92692141    -0.05478039     1.14604633
   34 H                    1.0000     2.26721922    -0.20958174     2.17175191
   35 C                    6.0000     2.32669673    -1.31190679     0.33438697
   36 H                    1.0000     1.80841984    -1.30295671    -0.62554738
   37 H                    1.0000     3.39616602    -1.29883198     0.11952311
   38 C                    6.0000     2.02380396    -2.62330521     1.08681780
   39 H                    1.0000     2.84616375    -2.82523484     1.77392899
   40 H                    1.0000     1.11191100    -2.52323254     1.67640469
   41 C                    6.0000     1.86162698    -3.81685518     0.13377368
   42 H                    1.0000     2.65952712    -3.80057278    -0.61171425
   43 H                    1.0000     1.94167597    -4.73810009     0.71495951
   44 N                    7.0000     0.53993308    -3.77573320    -0.51783604
   45 H                    1.0000    -0.11871566    -3.08850697    -0.16961206
   46 C                    6.0000     0.05374837    -4.55970365    -1.45774229
   47 N                    7.0000     0.74950291    -5.50965848    -2.01735418
   48 H                    1.0000     1.69712298    -5.65979378    -1.72144780
   49 H                    1.0000     0.34294189    -6.09026839    -2.72736140
   50 N                    7.0000    -1.17627699    -4.37719317    -1.83613567
   51 H                    1.0000    -1.59311548    -4.94980937    -2.54683135
   52 H                    1.0000    -1.71475942    -3.65795019    -1.36891175
   53 C                    6.0000     2.65022864     1.23294205     0.68839190
   54 O                    8.0000     2.03914076     2.26869749     0.42545603
   55 N                    7.0000     3.97312448     1.21832786     0.65810948
   56 H                    1.0000     4.46116535     2.05367930     0.38030002
   57 H                    1.0000     4.47852891     0.38062065     0.89533717

         Total SCF energy =  -1262.901515043221

 Vector  204  Occ=0.000000D+00  E= 2.941992D-01

 Vector  205  Occ=0.000000D+00  E= 2.969689D-01

 Vector  206  Occ=0.000000D+00  E= 2.992556D-01

 Vector  207  Occ=0.000000D+00  E= 3.007917D-01

 Vector  208  Occ=0.000000D+00  E= 3.036692D-01

 Vector  209  Occ=0.000000D+00  E= 3.066365D-01

 Vector  210  Occ=0.000000D+00  E= 3.110137D-01

 Vector  211  Occ=0.000000D+00  E= 3.146489D-01

 Vector  212  Occ=0.000000D+00  E= 3.177686D-01

 Vector  213  Occ=0.000000D+00  E= 3.206789D-01

 Vector  214  Occ=0.000000D+00  E= 3.219448D-01

 Vector  215  Occ=0.000000D+00  E= 3.248113D-01

 Vector  216  Occ=0.000000D+00  E= 3.285680D-01

 Vector  217  Occ=0.000000D+00  E= 3.332851D-01

 Vector  218  Occ=0.000000D+00  E= 3.344527D-01

 Vector  219  Occ=0.000000D+00  E= 3.368724D-01

 Vector  220  Occ=0.000000D+00  E= 3.396863D-01

 Vector  221  Occ=0.000000D+00  E= 3.419869D-01

 Vector  222  Occ=0.000000D+00  E= 3.448975D-01

 Vector  223  Occ=0.000000D+00  E= 3.466222D-01

 Vector  224  Occ=0.000000D+00  E= 3.492357D-01

 Vector  225  Occ=0.000000D+00  E= 3.514712D-01

 Vector  226  Occ=0.000000D+00  E= 3.530148D-01

 Vector  227  Occ=0.000000D+00  E= 3.552125D-01

 Vector  228  Occ=0.000000D+00  E= 3.571271D-01

 Vector  229  Occ=0.000000D+00  E= 3.595763D-01

 Vector  230  Occ=0.000000D+00  E= 3.622713D-01

 Vector  231  Occ=0.000000D+00  E= 3.664358D-01

 Vector  232  Occ=0.000000D+00  E= 3.672917D-01

 Vector  233  Occ=0.000000D+00  E= 3.704719D-01

 Vector  234  Occ=0.000000D+00  E= 3.724124D-01

 Vector  235  Occ=0.000000D+00  E= 3.738114D-01

 Vector  236  Occ=0.000000D+00  E= 3.760260D-01

 Vector  237  Occ=0.000000D+00  E= 3.782775D-01

 Vector  238  Occ=0.000000D+00  E= 3.799173D-01

 Vector  239  Occ=0.000000D+00  E= 3.856220D-01

 Vector  240  Occ=0.000000D+00  E= 3.889525D-01

 Vector  241  Occ=0.000000D+00  E= 3.908113D-01

 Vector  242  Occ=0.000000D+00  E= 3.947333D-01

 Vector  243  Occ=0.000000D+00  E= 3.972260D-01

 Vector  244  Occ=0.000000D+00  E= 4.007405D-01

 Vector  245  Occ=0.000000D+00  E= 4.016303D-01

 Vector  246  Occ=0.000000D+00  E= 4.049945D-01

 Vector  247  Occ=0.000000D+00  E= 4.061532D-01

 Vector  248  Occ=0.000000D+00  E= 4.078431D-01

 Vector  249  Occ=0.000000D+00  E= 4.098125D-01

 Vector  250  Occ=0.000000D+00  E= 4.114665D-01

 Vector  251  Occ=0.000000D+00  E= 4.131431D-01

 Vector  252  Occ=0.000000D+00  E= 4.169408D-01

 Vector  253  Occ=0.000000D+00  E= 4.180574D-01

 Vector  254  Occ=0.000000D+00  E= 4.209564D-01

 Vector  255  Occ=0.000000D+00  E= 4.226177D-01

 Vector  256  Occ=0.000000D+00  E= 4.269883D-01

 Vector  257  Occ=0.000000D+00  E= 4.285236D-01

 Vector  258  Occ=0.000000D+00  E= 4.313040D-01

 Vector  259  Occ=0.000000D+00  E= 4.329811D-01

 Vector  260  Occ=0.000000D+00  E= 4.364112D-01

 Vector  261  Occ=0.000000D+00  E= 4.384165D-01

 Vector  262  Occ=0.000000D+00  E= 4.394683D-01

 Vector  263  Occ=0.000000D+00  E= 4.420493D-01

 Vector  264  Occ=0.000000D+00  E= 4.441789D-01

 Vector  265  Occ=0.000000D+00  E= 4.491191D-01

 Vector  266  Occ=0.000000D+00  E= 4.513151D-01

 Vector  267  Occ=0.000000D+00  E= 4.518700D-01

 Vector  268  Occ=0.000000D+00  E= 4.546219D-01

 Vector  269  Occ=0.000000D+00  E= 4.599510D-01

 Vector  270  Occ=0.000000D+00  E= 4.624440D-01

 Vector  271  Occ=0.000000D+00  E= 4.657104D-01

 Vector  272  Occ=0.000000D+00  E= 4.672571D-01

 Vector  273  Occ=0.000000D+00  E= 4.705801D-01

 Vector  274  Occ=0.000000D+00  E= 4.743984D-01

 Vector  275  Occ=0.000000D+00  E= 4.755920D-01

 Vector  276  Occ=0.000000D+00  E= 4.782005D-01

 Vector  277  Occ=0.000000D+00  E= 4.819494D-01

 Vector  278  Occ=0.000000D+00  E= 4.864360D-01

 Vector  279  Occ=0.000000D+00  E= 4.902708D-01

 Vector  280  Occ=0.000000D+00  E= 4.918679D-01

 Vector  281  Occ=0.000000D+00  E= 4.945629D-01

 Vector  282  Occ=0.000000D+00  E= 4.948291D-01

 Vector  283  Occ=0.000000D+00  E= 5.001261D-01

       Multipole analysis of the density wrt the origin
       ------------------------------------------------

     L   x y z        total         open         nuclear
     -   - - -        -----         ----         -------
     0   0 0 0      0.000000      0.000000    202.000000

     1   1 0 0     -0.193017      0.000000     -0.000000
     1   0 1 0      0.978741      0.000000     -0.000000
     1   0 0 1     -1.175790      0.000000      0.000000

     2   2 0 0   -153.313220      0.000000   2723.188820
     2   1 1 0     -0.022531      0.000000    -50.630600
     2   1 0 1     -0.380515      0.000000     -5.237343
     2   0 2 0   -147.249081      0.000000   7272.607492
     2   0 1 1     -2.718205      0.000000    -18.570569

 Total times  cpu:    80597.4s     wall:    81180.6s
