============================== echo of input deck ==============================
start ARG_LYS_1
geometry
H          2.69100        7.46800        3.58600
C          3.00700        6.61400        2.98900
H          2.14700        5.97400        2.79100
H          3.75300        6.04100        3.53900
C          3.59100        7.09100        1.68100
O          4.77200        6.86000        1.41800
N          2.77000        7.77600        0.87600
H          1.82800        7.91200        1.21800
C          3.07300        8.29500       -0.47700
H          3.55800        7.49000       -1.03400
C          1.72900        8.61100       -1.18100
H          1.00300        7.85700       -0.86800
H          1.34200        9.57100       -0.83400
C          1.72900        8.57000       -2.72500
H          2.07600        7.58600       -3.04500
H          0.69500        8.67100       -3.05900
C          2.56300        9.63700       -3.45200
H          3.61900        9.46400       -3.23700
H          2.43100        9.51800       -4.52900
N          2.20900       11.00700       -3.03200
H          2.65200       11.30800       -2.17000
C          1.39200       11.86600       -3.61500
N          1.19800       13.04000       -3.08600
H          1.67600       13.29300       -2.23800
H          0.58000       13.70000       -3.52400
N          0.75100       11.58900       -4.71700
H          0.88600       10.69300       -5.14900
H          0.14000       12.26300       -5.14000
C          4.06700        9.47500       -0.43700
O          3.71500       10.62100       -0.71200
N          5.31800        9.17600       -0.07800
H          5.48200        8.20300        0.15500
C          6.45600       10.10200        0.07500
H          6.33700       10.91500       -0.64600
C          6.45100       10.73300        1.49100
H          7.29200       11.42100        1.58400
H          5.54300       11.33500        1.57100
C          6.45900        9.75900        2.69200
H          6.08600       10.30100        3.56200
H          5.75000        8.95600        2.51200
C          7.84000        9.18300        3.07100
H          8.55600        9.31200        2.26200
H          8.22600        9.76300        3.91300
C          7.80800        7.70100        3.48400
H          8.80500        7.43600        3.84900
H          7.10700        7.57300        4.31500
N          7.44400        6.80300        2.35600
H          6.45300        6.87100        2.13100
H          7.93900        7.07100        1.50600
H          7.65000        5.83600        2.56600
C          7.77800        9.40300       -0.25700
O          7.92600        8.21300        0.01300
N          8.75300       10.12200       -0.78700
H          9.62400        9.66500       -1.00800
H          8.62000       11.10100       -0.98300
end

basis
 * library aug-cc-pvdz
end

echo

scf
 direct
end

task scf energy
================================================================================

 Output coordinates in angstroms (scale by  1.889725989 to convert to a.u.)

  No.       Tag          Charge          X              Y              Z
 ---- ---------------- ---------- -------------- -------------- --------------
    1 H                    1.0000    -3.77152946    -1.77125648     1.81057753
    2 C                    6.0000    -3.89034881    -1.88445474     0.73417189
    3 H                    1.0000    -4.80585194    -1.38445333     0.41753865
    4 H                    1.0000    -3.96295773    -2.94272781     0.48491085
    5 C                    6.0000    -2.70949192    -1.27108293     0.02086899
    6 O                    8.0000    -1.97056258    -1.98189349    -0.66178962
    7 N                    7.0000    -2.52088616     0.04178851     0.19999870
    8 H                    1.0000    -3.19013563     0.50652176     0.79912487
    9 C                    6.0000    -1.48453873     0.88994457    -0.43118613
   10 H                    1.0000    -1.47334301     0.65203137    -1.49738075
   11 C                    6.0000    -1.92129301     2.36958011    -0.28376708
   12 H                    1.0000    -3.00895932     2.40752879    -0.37917621
   13 H                    1.0000    -1.68950969     2.72938573     0.72052093
   14 C                    6.0000    -1.37844977     3.36059613    -1.33677490
   15 H                    1.0000    -1.66244694     3.00241745    -2.32779390
   16 H                    1.0000    -1.88263030     4.31617014    -1.18317381
   17 C                    6.0000     0.13596547     3.62347818    -1.33310029
   18 H                    1.0000     0.65233783     2.70620816    -1.62165754
   19 H                    1.0000     0.36794439     4.37434469    -2.09066168
   20 N                    7.0000     0.62724812     4.05082030    -0.00847352
   21 H                    1.0000     0.80013755     3.28906405     0.63939271
   22 C                    6.0000     0.84885375     5.27486154     0.43635565
   23 N                    7.0000     1.28073947     5.45654010     1.65135385
   24 H                    1.0000     1.45128492     4.66395300     2.24659913
   25 H                    1.0000     1.45385803     6.38391813     1.99685054
   26 N                    7.0000     0.64733012     6.33572379    -0.29574647
   27 H                    1.0000     0.31938861     6.22435751    -1.23793377
   28 H                    1.0000     0.82863126     7.25326801     0.06725285
   29 C                    6.0000    -0.07292229     0.58260900     0.11187912
   30 O                    8.0000     0.53154062     1.38573123     0.82072627
   31 N                    7.0000     0.43971406    -0.60346334    -0.22534393
   32 H                    1.0000    -0.16363310    -1.19316413    -0.78760648
   33 C                    6.0000     1.74235309    -1.16762071     0.17563865
   34 H                    1.0000     2.45261414    -0.34467066     0.29076229
   35 C                    6.0000     1.62371160    -1.87403819     1.55046248
   36 H                    1.0000     2.59614888    -2.27666767     1.83599572
   37 H                    1.0000     1.37424769    -1.10566285     2.28574141
   38 C                    6.0000     0.55834843    -2.98774202     1.67618468
   39 H                    1.0000     0.33720356    -3.11802279     2.73633319
   40 H                    1.0000    -0.36775268    -2.65698591     1.21485276
   41 C                    6.0000     0.97209375    -4.36829380     1.12349165
   42 H                    1.0000     1.83301935    -4.28629076     0.46329424
   43 H                    1.0000     1.29404945    -4.98462621     1.96660428
   44 C                    6.0000    -0.15701286    -5.11234576     0.38903814
   45 H                    1.0000     0.20523398    -6.11789773     0.15430117
   46 H                    1.0000    -1.01536016    -5.21854778     1.06008735
   47 N                    7.0000    -0.56379287    -4.43154550    -0.86886687
   48 H                    1.0000    -1.10064021    -3.58726361    -0.67830710
   49 H                    1.0000     0.25386182    -4.12569687    -1.39540882
   50 H                    1.0000    -1.12666574    -5.03287612    -1.45470014
   51 C                    6.0000     2.29943988    -2.08655098    -0.91602543
   52 O                    8.0000     1.53184227    -2.76221622    -1.59806239
   53 N                    7.0000     3.61129864    -2.16463988    -1.06236309
   54 H                    1.0000     3.98144906    -2.76741933    -1.78067820
   55 H                    1.0000     4.22563165    -1.61812128    -0.48059133

         Total SCF energy =  -1153.952437470676

 Vector  193  Occ=0.000000D+00  E= 2.902046D-01

 Vector  194  Occ=0.000000D+00  E= 2.923178D-01

 Vector  195  Occ=0.000000D+00  E= 2.934466D-01

 Vector  196  Occ=0.000000D+00  E= 3.000807D-01

 Vector  197  Occ=0.000000D+00  E= 3.016061D-01

 Vector  198  Occ=0.000000D+00  E= 3.053359D-01

 Vector  199  Occ=0.000000D+00  E= 3.090051D-01

 Vector  200  Occ=0.000000D+00  E= 3.135129D-01

 Vector  201  Occ=0.000000D+00  E= 3.147993D-01

 Vector  202  Occ=0.000000D+00  E= 3.181167D-01

 Vector  203  Occ=0.000000D+00  E= 3.203113D-01

 Vector  204  Occ=0.000000D+00  E= 3.227176D-01

 Vector  205  Occ=0.000000D+00  E= 3.261855D-01

 Vector  206  Occ=0.000000D+00  E= 3.284881D-01

 Vector  207  Occ=0.000000D+00  E= 3.290975D-01

 Vector  208  Occ=0.000000D+00  E= 3.302878D-01

 Vector  209  Occ=0.000000D+00  E= 3.359680D-01

 Vector  210  Occ=0.000000D+00  E= 3.383608D-01

 Vector  211  Occ=0.000000D+00  E= 3.407496D-01

 Vector  212  Occ=0.000000D+00  E= 3.438893D-01

 Vector  213  Occ=0.000000D+00  E= 3.476219D-01

 Vector  214  Occ=0.000000D+00  E= 3.492601D-01

 Vector  215  Occ=0.000000D+00  E= 3.510976D-01

 Vector  216  Occ=0.000000D+00  E= 3.527886D-01

 Vector  217  Occ=0.000000D+00  E= 3.555610D-01

 Vector  218  Occ=0.000000D+00  E= 3.601764D-01

 Vector  219  Occ=0.000000D+00  E= 3.633383D-01

 Vector  220  Occ=0.000000D+00  E= 3.646233D-01

 Vector  221  Occ=0.000000D+00  E= 3.671206D-01

 Vector  222  Occ=0.000000D+00  E= 3.705488D-01

 Vector  223  Occ=0.000000D+00  E= 3.752969D-01

 Vector  224  Occ=0.000000D+00  E= 3.761563D-01

 Vector  225  Occ=0.000000D+00  E= 3.788767D-01

 Vector  226  Occ=0.000000D+00  E= 3.795901D-01

 Vector  227  Occ=0.000000D+00  E= 3.837153D-01

 Vector  228  Occ=0.000000D+00  E= 3.865351D-01

 Vector  229  Occ=0.000000D+00  E= 3.896318D-01

 Vector  230  Occ=0.000000D+00  E= 3.912273D-01

 Vector  231  Occ=0.000000D+00  E= 3.933705D-01

 Vector  232  Occ=0.000000D+00  E= 3.967458D-01

 Vector  233  Occ=0.000000D+00  E= 3.976414D-01

 Vector  234  Occ=0.000000D+00  E= 4.018758D-01

 Vector  235  Occ=0.000000D+00  E= 4.042211D-01

 Vector  236  Occ=0.000000D+00  E= 4.059310D-01

 Vector  237  Occ=0.000000D+00  E= 4.085490D-01

 Vector  238  Occ=0.000000D+00  E= 4.102406D-01

 Vector  239  Occ=0.000000D+00  E= 4.142515D-01

 Vector  240  Occ=0.000000D+00  E= 4.151174D-01

 Vector  241  Occ=0.000000D+00  E= 4.182785D-01

 Vector  242  Occ=0.000000D+00  E= 4.210754D-01

 Vector  243  Occ=0.000000D+00  E= 4.230546D-01

 Vector  244  Occ=0.000000D+00  E= 4.254015D-01

 Vector  245  Occ=0.000000D+00  E= 4.281768D-01

 Vector  246  Occ=0.000000D+00  E= 4.309406D-01

 Vector  247  Occ=0.000000D+00  E= 4.324983D-01

 Vector  248  Occ=0.000000D+00  E= 4.342090D-01

 Vector  249  Occ=0.000000D+00  E= 4.356665D-01

 Vector  250  Occ=0.000000D+00  E= 4.381444D-01

 Vector  251  Occ=0.000000D+00  E= 4.412254D-01

 Vector  252  Occ=0.000000D+00  E= 4.433060D-01

 Vector  253  Occ=0.000000D+00  E= 4.473570D-01

 Vector  254  Occ=0.000000D+00  E= 4.486062D-01

 Vector  255  Occ=0.000000D+00  E= 4.528854D-01

 Vector  256  Occ=0.000000D+00  E= 4.549537D-01

 Vector  257  Occ=0.000000D+00  E= 4.588599D-01

 Vector  258  Occ=0.000000D+00  E= 4.612567D-01

 Vector  259  Occ=0.000000D+00  E= 4.632590D-01

 Vector  260  Occ=0.000000D+00  E= 4.659511D-01

 Vector  261  Occ=0.000000D+00  E= 4.691191D-01

 Vector  262  Occ=0.000000D+00  E= 4.726830D-01

 Vector  263  Occ=0.000000D+00  E= 4.742880D-01

 Vector  264  Occ=0.000000D+00  E= 4.774257D-01

 Vector  265  Occ=0.000000D+00  E= 4.796766D-01

 Vector  266  Occ=0.000000D+00  E= 4.844879D-01

 Vector  267  Occ=0.000000D+00  E= 4.869122D-01

 Vector  268  Occ=0.000000D+00  E= 4.876149D-01

 Vector  269  Occ=0.000000D+00  E= 4.893378D-01

 Vector  270  Occ=0.000000D+00  E= 4.931929D-01

 Vector  271  Occ=0.000000D+00  E= 4.989452D-01

 Vector  272  Occ=0.000000D+00  E= 5.024997D-01

       Multipole analysis of the density wrt the origin
       ------------------------------------------------

     L   x y z        total         open         nuclear
     -   - - -        -----         ----         -------
     0   0 0 0     -0.000000      0.000000    188.000000

     1   1 0 0     -0.109390      0.000000     -0.000000
     1   0 1 0     -2.602397      0.000000      0.000000
     1   0 0 1     -0.376143      0.000000     -0.000000

     2   2 0 0   -143.965318      0.000000   2197.064851
     2   1 1 0     -7.666709      0.000000     -0.248632
     2   1 0 1     -1.096936      0.000000      6.836036
     2   0 2 0   -146.694922      0.000000   7480.162565
     2   0 1 1     -6.843718      0.000000    -47.839208

 Total times  cpu:    60056.1s     wall:    60331.9s
