============================== echo of input deck ==============================
start ASN_GLN_3
geometry
H         11.13800       15.50900        2.54400
C         10.07400       15.55700        2.32100
H          9.83200       14.84000        1.53700
H          9.80600       16.56000        1.99200
C          9.28400       15.21400        3.56100
O          8.50700       14.26600        3.55800
N          9.45300       16.00600        4.61900
H         10.07200       16.79400        4.52100
C          8.76400       15.81600        5.90700
H          8.97100       14.79900        6.24800
C          9.36800       16.81700        6.91600
H         10.42000       16.98000        6.68000
H          8.85100       17.77200        6.83700
C          9.32800       16.36800        8.37200
O         10.27800       16.55200        9.10800
N          8.27000       15.75300        8.84500
H          7.46000       15.58800        8.25700
H          8.30800       15.47300        9.80700
C          7.22600       15.95700        5.79600
O          6.50000       15.55600        6.70200
N          6.72900       16.52000        4.69300
H          7.39600       16.86000        4.00900
C          5.31300       16.62400        4.33900
H          4.75900       16.98700        5.20600
C          5.16100       17.64400        3.19100
H          5.67100       17.27600        2.29900
H          4.09900       17.71300        2.95300
C          5.65200       19.06900        3.51900
H          5.13600       19.75800        2.85000
H          5.36200       19.32800        4.53800
C          7.15500       19.31400        3.34700
O          7.96100       18.43600        3.08000
N          7.60500       20.53800        3.51100
H          6.97800       21.29100        3.72900
H          8.59100       20.67200        3.37500
C          4.67700       15.27700        3.93300
O          3.46100       15.18300        3.82000
N          5.45300       14.22600        3.69100
H          6.45900       14.29900        3.76400
H          5.01400       13.35800        3.43500
end

basis
 * library aug-cc-pvdz
end

echo

scf
 direct
end

task scf energy
================================================================================

 Output coordinates in angstroms (scale by  1.889725989 to convert to a.u.)

  No.       Tag          Charge          X              Y              Z
 ---- ---------------- ---------- -------------- -------------- --------------
    1 H                    1.0000     1.76396010    -0.78701051    -4.03827413
    2 C                    6.0000     1.29778752     0.06889964    -3.55430105
    3 H                    1.0000     0.80522200     0.68880785    -4.30290108
    4 H                    1.0000     2.04993662     0.65820092    -3.03174030
    5 C                    6.0000     0.26783264    -0.41368559    -2.56150024
    6 O                    8.0000    -0.90533135    -0.07634390    -2.67253546
    7 N                    7.0000     0.70785118    -1.17944072    -1.56390725
    8 H                    1.0000     1.69589893    -1.36735027    -1.51742439
    9 C                    6.0000    -0.15855760    -1.73647271    -0.51090383
   10 H                    1.0000    -0.95758296    -2.29814013    -1.00029855
   11 C                    6.0000     0.69353836    -2.70805495     0.33458918
   12 H                    1.0000     1.44680730    -3.17625230    -0.29971843
   13 H                    1.0000     1.20738163    -2.15504347     1.11925369
   14 C                    6.0000    -0.08166583    -3.85036120     0.98060148
   15 O                    8.0000     0.37171908    -4.97819791     1.00247562
   16 N                    7.0000    -1.26517693    -3.63314521     1.50351322
   17 H                    1.0000    -1.66894657    -2.70253321     1.50412774
   18 H                    1.0000    -1.72977349    -4.42624923     1.90404293
   19 C                    6.0000    -0.83198051    -0.64542537     0.35729158
   20 O                    8.0000    -1.78430425    -0.92853611     1.07953864
   21 N                    7.0000    -0.34571951     0.59528387     0.28816981
   22 H                    1.0000     0.46630889     0.73933642    -0.30191810
   23 C                    6.0000    -0.91843172     1.78409249     0.92056429
   24 H                    1.0000    -1.15527334     1.55067725     1.95969728
   25 C                    6.0000     0.13022181     2.91590166     0.89332841
   26 H                    1.0000     0.34643809     3.19534374    -0.13931414
   27 H                    1.0000    -0.31397006     3.78536099     1.37910929
   28 C                    6.0000     1.44683253     2.59939436     1.63200921
   29 H                    1.0000     1.90695642     3.54851348     1.90768456
   30 H                    1.0000     1.22557875     2.06543290     2.55692754
   31 C                    6.0000     2.48814553     1.80875645     0.83252378
   32 O                    8.0000     2.28307404     1.34334957    -0.27794959
   33 N                    7.0000     3.66585537     1.60705580     1.38014444
   34 H                    1.0000     3.87881547     1.97334013     2.29016960
   35 H                    1.0000     4.33377210     1.10117664     0.82641029
   36 C                    6.0000    -2.22831663     2.26512783     0.25984686
   37 O                    8.0000    -2.91896515     3.11157159     0.81374088
   38 N                    7.0000    -2.59501875     1.77062677    -0.91758223
   39 H                    1.0000    -2.02193748     1.08490027    -1.39092253
   40 H                    1.0000    -3.45610751     2.09504348    -1.32373606

         Total SCF energy =  -1074.448145285573

 Vector  134  Occ=0.000000D+00  E= 2.125491D-01

 Vector  135  Occ=0.000000D+00  E= 2.188810D-01

 Vector  136  Occ=0.000000D+00  E= 2.216016D-01

 Vector  137  Occ=0.000000D+00  E= 2.251977D-01

 Vector  138  Occ=0.000000D+00  E= 2.289181D-01

 Vector  139  Occ=0.000000D+00  E= 2.335216D-01

 Vector  140  Occ=0.000000D+00  E= 2.357257D-01

 Vector  141  Occ=0.000000D+00  E= 2.376100D-01

 Vector  142  Occ=0.000000D+00  E= 2.415588D-01

 Vector  143  Occ=0.000000D+00  E= 2.468642D-01

 Vector  144  Occ=0.000000D+00  E= 2.515605D-01

 Vector  145  Occ=0.000000D+00  E= 2.540223D-01

 Vector  146  Occ=0.000000D+00  E= 2.602929D-01

 Vector  147  Occ=0.000000D+00  E= 2.702636D-01

 Vector  148  Occ=0.000000D+00  E= 2.743131D-01

 Vector  149  Occ=0.000000D+00  E= 2.794054D-01

 Vector  150  Occ=0.000000D+00  E= 2.806335D-01

 Vector  151  Occ=0.000000D+00  E= 2.855891D-01

 Vector  152  Occ=0.000000D+00  E= 2.884051D-01

 Vector  153  Occ=0.000000D+00  E= 2.919949D-01

 Vector  154  Occ=0.000000D+00  E= 2.963284D-01

 Vector  155  Occ=0.000000D+00  E= 2.988555D-01

 Vector  156  Occ=0.000000D+00  E= 3.035716D-01

 Vector  157  Occ=0.000000D+00  E= 3.045559D-01

 Vector  158  Occ=0.000000D+00  E= 3.140252D-01

 Vector  159  Occ=0.000000D+00  E= 3.163254D-01

 Vector  160  Occ=0.000000D+00  E= 3.222504D-01

 Vector  161  Occ=0.000000D+00  E= 3.288161D-01

 Vector  162  Occ=0.000000D+00  E= 3.311496D-01

 Vector  163  Occ=0.000000D+00  E= 3.385400D-01

 Vector  164  Occ=0.000000D+00  E= 3.410414D-01

 Vector  165  Occ=0.000000D+00  E= 3.443452D-01

 Vector  166  Occ=0.000000D+00  E= 3.470060D-01

 Vector  167  Occ=0.000000D+00  E= 3.482571D-01

 Vector  168  Occ=0.000000D+00  E= 3.500485D-01

 Vector  169  Occ=0.000000D+00  E= 3.555845D-01

 Vector  170  Occ=0.000000D+00  E= 3.571401D-01

 Vector  171  Occ=0.000000D+00  E= 3.593623D-01

 Vector  172  Occ=0.000000D+00  E= 3.623217D-01

 Vector  173  Occ=0.000000D+00  E= 3.689193D-01

 Vector  174  Occ=0.000000D+00  E= 3.718128D-01

 Vector  175  Occ=0.000000D+00  E= 3.721933D-01

 Vector  176  Occ=0.000000D+00  E= 3.798612D-01

 Vector  177  Occ=0.000000D+00  E= 3.812012D-01

 Vector  178  Occ=0.000000D+00  E= 3.850970D-01

 Vector  179  Occ=0.000000D+00  E= 3.871778D-01

 Vector  180  Occ=0.000000D+00  E= 3.887708D-01

 Vector  181  Occ=0.000000D+00  E= 3.947442D-01

 Vector  182  Occ=0.000000D+00  E= 3.960071D-01

 Vector  183  Occ=0.000000D+00  E= 3.998962D-01

 Vector  184  Occ=0.000000D+00  E= 4.015769D-01

 Vector  185  Occ=0.000000D+00  E= 4.034825D-01

 Vector  186  Occ=0.000000D+00  E= 4.075883D-01

 Vector  187  Occ=0.000000D+00  E= 4.102042D-01

 Vector  188  Occ=0.000000D+00  E= 4.140150D-01

 Vector  189  Occ=0.000000D+00  E= 4.180999D-01

 Vector  190  Occ=0.000000D+00  E= 4.205528D-01

 Vector  191  Occ=0.000000D+00  E= 4.239756D-01

 Vector  192  Occ=0.000000D+00  E= 4.286061D-01

 Vector  193  Occ=0.000000D+00  E= 4.315957D-01

 Vector  194  Occ=0.000000D+00  E= 4.322029D-01

 Vector  195  Occ=0.000000D+00  E= 4.345228D-01

 Vector  196  Occ=0.000000D+00  E= 4.433187D-01

 Vector  197  Occ=0.000000D+00  E= 4.447750D-01

 Vector  198  Occ=0.000000D+00  E= 4.481108D-01

 Vector  199  Occ=0.000000D+00  E= 4.512900D-01

 Vector  200  Occ=0.000000D+00  E= 4.518252D-01

 Vector  201  Occ=0.000000D+00  E= 4.555322D-01

 Vector  202  Occ=0.000000D+00  E= 4.594274D-01

 Vector  203  Occ=0.000000D+00  E= 4.629245D-01

 Vector  204  Occ=0.000000D+00  E= 4.664462D-01

 Vector  205  Occ=0.000000D+00  E= 4.685843D-01

 Vector  206  Occ=0.000000D+00  E= 4.759749D-01

 Vector  207  Occ=0.000000D+00  E= 4.801860D-01

 Vector  208  Occ=0.000000D+00  E= 4.827936D-01

 Vector  209  Occ=0.000000D+00  E= 4.855845D-01

 Vector  210  Occ=0.000000D+00  E= 4.921088D-01

 Vector  211  Occ=0.000000D+00  E= 4.951343D-01

 Vector  212  Occ=0.000000D+00  E= 4.995408D-01

 Vector  213  Occ=0.000000D+00  E= 5.016861D-01

       Multipole analysis of the density wrt the origin
       ------------------------------------------------

     L   x y z        total         open         nuclear
     -   - - -        -----         ----         -------
     0   0 0 0     -0.000000      0.000000    160.000000

     1   1 0 0      3.526078      0.000000     -0.000000
     1   0 1 0      1.381516      0.000000     -0.000000
     1   0 0 1      0.016575      0.000000      0.000000

     2   2 0 0    -88.017018      0.000000   1714.220163
     2   1 1 0     17.491392      0.000000     28.809907
     2   1 0 1      7.205914      0.000000      0.614685
     2   0 2 0   -117.366462      0.000000   3080.870357
     2   0 1 1      6.672765      0.000000     16.623511

 Total times  cpu:     6096.1s     wall:     6117.5s
