============================== echo of input deck ==============================
start ASN_GLN_2
geometry
H          3.29000        2.28800        1.87600
C          3.08900        3.26700        1.44000
H          2.40300        3.16200        0.60200
H          4.02300        3.71000        1.09900
C          2.47400        4.15600        2.49400
O          2.30600        3.74400        3.63100
N          2.09600        5.37100        2.10900
H          2.21300        5.62100        1.13600
C          1.54500        6.40700        2.99700
H          2.20800        6.50300        3.85900
C          1.55500        7.73600        2.21900
H          1.29800        8.55500        2.89100
H          2.54800        7.93000        1.81300
C          0.55900        7.68500        1.07600
O          0.78800        7.03700        0.06500
N         -0.60400        8.25400        1.26000
H         -0.82500        8.65800        2.15300
H         -1.35000        7.94900        0.64200
C          0.12900        6.11200        3.55900
O         -0.43600        6.95700        4.25100
N         -0.46300        4.95600        3.24600
H          0.09800        4.28600        2.74600
C         -1.81000        4.52900        3.66000
H         -2.46200        5.40400        3.66500
C         -2.37600        3.52500        2.62600
H         -1.58200        2.85000        2.30000
H         -3.14800        2.91600        3.09700
C         -3.04400        4.17600        1.39900
H         -3.34200        3.38700        0.70900
H         -3.94900        4.68900        1.72900
C         -2.17900        5.17700        0.64000
O         -2.50900        6.34400        0.52100
N         -1.03100        4.78500        0.13000
H         -0.75900        3.82300        0.14800
H         -0.45700        5.52000       -0.27600
C         -1.81500        3.99500        5.11300
O         -2.27100        2.89600        5.40200
N         -1.27400        4.75400        6.05700
H         -0.90300        5.66200        5.81200
H         -1.25100        4.40500        7.00000
end

basis
 * library aug-cc-pvdz
end

echo

scf
 direct
end

task scf energy
================================================================================

 Output coordinates in angstroms (scale by  1.889725989 to convert to a.u.)

  No.       Tag          Charge          X              Y              Z
 ---- ---------------- ---------- -------------- -------------- --------------
    1 H                    1.0000     3.45508429     0.93224932    -3.04945955
    2 C                    6.0000     2.77749142     1.59136973    -2.50598352
    3 H                    1.0000     1.83435096     1.67177385    -3.04253386
    4 H                    1.0000     3.23135999     2.57589318    -2.40798911
    5 C                    6.0000     2.53431533     1.01809049    -1.13060056
    6 O                    8.0000     3.09003182    -0.01143683    -0.78133033
    7 N                    7.0000     1.66688090     1.66234534    -0.35611545
    8 H                    1.0000     1.20069603     2.47556007    -0.73594630
    9 C                    6.0000     1.34827953     1.30655104     1.03576982
   10 H                    1.0000     2.28744747     1.19296742     1.58064718
   11 C                    6.0000     0.56525247     2.48371473     1.64632635
   12 H                    1.0000     0.44341716     2.32517043     2.71796708
   13 H                    1.0000     1.11011661     3.41686701     1.50185878
   14 C                    6.0000    -0.79809840     2.60536086     0.99245891
   15 O                    8.0000    -0.91995951     3.05007337    -0.13972776
   16 N                    7.0000    -1.82312895     2.10334758     1.63080133
   17 H                    1.0000    -1.67963374     1.61386196     2.49643344
   18 H                    1.0000    -2.64458603     1.90728656     1.06667959
   19 C                    6.0000     0.56842680    -0.02270095     1.21699853
   20 O                    8.0000     0.19861527    -0.35949688     2.34035152
   21 N                    7.0000     0.28223684    -0.75674477     0.13808983
   22 H                    1.0000     0.69150137    -0.45501069    -0.73086362
   23 C                    6.0000    -0.47538761    -2.01922787     0.12148826
   24 H                    1.0000    -1.26762715    -1.95497444     0.86913926
   25 C                    6.0000    -1.14622032    -2.20285659    -1.26191044
   26 H                    1.0000    -0.45946922    -1.87890379    -2.04661707
   27 H                    1.0000    -1.35336799    -3.26048842    -1.42686722
   28 C                    6.0000    -2.49806964    -1.47969221    -1.42031091
   29 H                    1.0000    -2.84492017    -1.61661937    -2.44421064
   30 H                    1.0000    -3.22381578    -1.95318419    -0.75684132
   31 C                    6.0000    -2.47796238     0.01459404    -1.11533337
   32 O                    8.0000    -3.15918001     0.49333349    -0.22555752
   33 N                    7.0000    -1.68140839     0.80512475    -1.80252399
   34 H                    1.0000    -1.15983526     0.46132811    -2.58323990
   35 H                    1.0000    -1.64080796     1.77074976    -1.48557457
   36 C                    6.0000     0.40729906    -3.21697479     0.54887166
   37 O                    8.0000     0.51453497    -4.22530644    -0.13744148
   38 N                    7.0000     1.08724335    -3.11556698     1.68345979
   39 H                    1.0000     0.99087017    -2.28186150     2.24717725
   40 H                    1.0000     1.68215518    -3.87891122     1.95725620

         Total SCF energy =  -1074.442744939916

 Vector  133  Occ=0.000000D+00  E= 2.120187D-01

 Vector  134  Occ=0.000000D+00  E= 2.162231D-01

 Vector  135  Occ=0.000000D+00  E= 2.187565D-01

 Vector  136  Occ=0.000000D+00  E= 2.256292D-01

 Vector  137  Occ=0.000000D+00  E= 2.264319D-01

 Vector  138  Occ=0.000000D+00  E= 2.287814D-01

 Vector  139  Occ=0.000000D+00  E= 2.336288D-01

 Vector  140  Occ=0.000000D+00  E= 2.383745D-01

 Vector  141  Occ=0.000000D+00  E= 2.403455D-01

 Vector  142  Occ=0.000000D+00  E= 2.494467D-01

 Vector  143  Occ=0.000000D+00  E= 2.506463D-01

 Vector  144  Occ=0.000000D+00  E= 2.517232D-01

 Vector  145  Occ=0.000000D+00  E= 2.554178D-01

 Vector  146  Occ=0.000000D+00  E= 2.590338D-01

 Vector  147  Occ=0.000000D+00  E= 2.638272D-01

 Vector  148  Occ=0.000000D+00  E= 2.702257D-01

 Vector  149  Occ=0.000000D+00  E= 2.737262D-01

 Vector  150  Occ=0.000000D+00  E= 2.774037D-01

 Vector  151  Occ=0.000000D+00  E= 2.836015D-01

 Vector  152  Occ=0.000000D+00  E= 2.875043D-01

 Vector  153  Occ=0.000000D+00  E= 2.921639D-01

 Vector  154  Occ=0.000000D+00  E= 2.991899D-01

 Vector  155  Occ=0.000000D+00  E= 3.027862D-01

 Vector  156  Occ=0.000000D+00  E= 3.096097D-01

 Vector  157  Occ=0.000000D+00  E= 3.134421D-01

 Vector  158  Occ=0.000000D+00  E= 3.167396D-01

 Vector  159  Occ=0.000000D+00  E= 3.236157D-01

 Vector  160  Occ=0.000000D+00  E= 3.255359D-01

 Vector  161  Occ=0.000000D+00  E= 3.298962D-01

 Vector  162  Occ=0.000000D+00  E= 3.330033D-01

 Vector  163  Occ=0.000000D+00  E= 3.345121D-01

 Vector  164  Occ=0.000000D+00  E= 3.376247D-01

 Vector  165  Occ=0.000000D+00  E= 3.409186D-01

 Vector  166  Occ=0.000000D+00  E= 3.441204D-01

 Vector  167  Occ=0.000000D+00  E= 3.450954D-01

 Vector  168  Occ=0.000000D+00  E= 3.491032D-01

 Vector  169  Occ=0.000000D+00  E= 3.520033D-01

 Vector  170  Occ=0.000000D+00  E= 3.543124D-01

 Vector  171  Occ=0.000000D+00  E= 3.608564D-01

 Vector  172  Occ=0.000000D+00  E= 3.639916D-01

 Vector  173  Occ=0.000000D+00  E= 3.662359D-01

 Vector  174  Occ=0.000000D+00  E= 3.720823D-01

 Vector  175  Occ=0.000000D+00  E= 3.749949D-01

 Vector  176  Occ=0.000000D+00  E= 3.771920D-01

 Vector  177  Occ=0.000000D+00  E= 3.817067D-01

 Vector  178  Occ=0.000000D+00  E= 3.855719D-01

 Vector  179  Occ=0.000000D+00  E= 3.870136D-01

 Vector  180  Occ=0.000000D+00  E= 3.882274D-01

 Vector  181  Occ=0.000000D+00  E= 3.900649D-01

 Vector  182  Occ=0.000000D+00  E= 3.969794D-01

 Vector  183  Occ=0.000000D+00  E= 3.980142D-01

 Vector  184  Occ=0.000000D+00  E= 4.017140D-01

 Vector  185  Occ=0.000000D+00  E= 4.035982D-01

 Vector  186  Occ=0.000000D+00  E= 4.055780D-01

 Vector  187  Occ=0.000000D+00  E= 4.074392D-01

 Vector  188  Occ=0.000000D+00  E= 4.166403D-01

 Vector  189  Occ=0.000000D+00  E= 4.186673D-01

 Vector  190  Occ=0.000000D+00  E= 4.231751D-01

 Vector  191  Occ=0.000000D+00  E= 4.267409D-01

 Vector  192  Occ=0.000000D+00  E= 4.293176D-01

 Vector  193  Occ=0.000000D+00  E= 4.321719D-01

 Vector  194  Occ=0.000000D+00  E= 4.335484D-01

 Vector  195  Occ=0.000000D+00  E= 4.393587D-01

 Vector  196  Occ=0.000000D+00  E= 4.411428D-01

 Vector  197  Occ=0.000000D+00  E= 4.479750D-01

 Vector  198  Occ=0.000000D+00  E= 4.497338D-01

 Vector  199  Occ=0.000000D+00  E= 4.527446D-01

 Vector  200  Occ=0.000000D+00  E= 4.554191D-01

 Vector  201  Occ=0.000000D+00  E= 4.602344D-01

 Vector  202  Occ=0.000000D+00  E= 4.620196D-01

 Vector  203  Occ=0.000000D+00  E= 4.686750D-01

 Vector  204  Occ=0.000000D+00  E= 4.692513D-01

 Vector  205  Occ=0.000000D+00  E= 4.736805D-01

 Vector  206  Occ=0.000000D+00  E= 4.807535D-01

 Vector  207  Occ=0.000000D+00  E= 4.850594D-01

 Vector  208  Occ=0.000000D+00  E= 4.884296D-01

 Vector  209  Occ=0.000000D+00  E= 4.897671D-01

 Vector  210  Occ=0.000000D+00  E= 4.956823D-01

 Vector  211  Occ=0.000000D+00  E= 4.964810D-01

 Vector  212  Occ=0.000000D+00  E= 5.005194D-01

       Multipole analysis of the density wrt the origin
       ------------------------------------------------

     L   x y z        total         open         nuclear
     -   - - -        -----         ----         -------
     0   0 0 0      0.000000      0.000000    160.000000

     1   1 0 0      0.389470      0.000000     -0.000000
     1   0 1 0      1.538051      0.000000     -0.000000
     1   0 0 1     -0.430602      0.000000     -0.000000

     2   2 0 0   -101.773005      0.000000   1781.331382
     2   1 1 0     12.836905      0.000000     41.599644
     2   1 0 1      2.821808      0.000000     -6.591990
     2   0 2 0   -105.361289      0.000000   2409.189246
     2   0 1 1     -1.218966      0.000000     -1.044850

 Total times  cpu:     7295.8s     wall:     7320.2s
