============================== echo of input deck ==============================
start ASN_MET_4
geometry
H          4.82800        8.65800      -14.28400
C          3.82200        8.27500      -14.44300
H          3.70700        7.96600      -15.48100
H          3.08900        9.04400      -14.20800
C          3.59500        7.07800      -13.54900
O          3.33300        5.98700      -14.03700
N          3.69600        7.28800      -12.23900
H          3.88000        8.22500      -11.91200
C          3.46100        6.27600      -11.20500
H          2.64800        5.62200      -11.52900
C          4.74100        5.42800      -11.03700
H          5.04000        5.02300      -12.00400
H          5.54200        6.06700      -10.66700
C          4.55800        4.25400      -10.08900
O          3.48300        3.69500       -9.94800
N          5.58100        3.87300       -9.36500
H          5.39900        3.15800       -8.68500
H          6.44100        4.38600       -9.38900
C          3.03600        6.94700       -9.88300
O          3.23300        8.14900       -9.70100
N          2.48400        6.17100       -8.94800
H          2.42300        5.17800       -9.14900
C          2.27600        6.60100       -7.56300
H          1.74000        7.55000       -7.58000
C          1.40000        5.56000       -6.84400
H          0.45100        5.47000       -7.37400
H          1.89800        4.59000       -6.88300
C          1.11700        5.89600       -5.37300
H          0.45600        5.12900       -4.96800
H          2.05300        5.84000       -4.81800
S          0.36800        7.52200       -5.05900
C         -1.25900        7.30600       -5.83000
H         -1.14500        7.14700       -6.90200
H         -1.76600        6.44900       -5.38500
H         -1.85800        8.20200       -5.66500
C          3.61900        6.82800       -6.84400
O          4.57700        6.08400       -7.03000
N          3.70600        7.83800       -5.98900
H          2.90900        8.43100       -5.82600
H          4.58300        7.99100       -5.52000
end

basis
 * library aug-cc-pvdz
end

echo

scf
 direct
end

task scf energy
================================================================================

 Output coordinates in angstroms (scale by  1.889725989 to convert to a.u.)

  No.       Tag          Charge          X              Y              Z
 ---- ---------------- ---------- -------------- -------------- --------------
    1 H                    1.0000    -2.03702449     5.45997525     1.68966470
    2 C                    6.0000    -2.44897081     5.24849275     0.70499147
    3 H                    1.0000    -2.63204329     6.18254996     0.17567910
    4 H                    1.0000    -3.38095874     4.69542029     0.80186436
    5 C                    6.0000    -1.45876087     4.42503017    -0.08555750
    6 O                    8.0000    -1.00493238     4.85296951    -1.13816218
    7 N                    7.0000    -1.12784654     3.24233029     0.42641681
    8 H                    1.0000    -1.57269951     2.94389104     1.28186630
    9 C                    6.0000    -0.22939014     2.27349141    -0.20813211
   10 H                    1.0000    -0.38011603     2.30755094    -1.28969702
   11 C                    6.0000     1.23091131     2.67090072     0.10059679
   12 H                    1.0000     1.39901074     3.70523744    -0.20007764
   13 H                    1.0000     1.39934245     2.59097270     1.17393945
   14 C                    6.0000     2.24965747     1.81291712    -0.63185758
   15 O                    8.0000     2.01445183     1.31150564    -1.71871168
   16 N                    7.0000     3.39370735     1.56603253    -0.04358563
   17 H                    1.0000     4.00237644     0.92194468    -0.51414039
   18 H                    1.0000     3.56342321     1.88063079     0.89213305
   19 C                    6.0000    -0.55262302     0.84471262     0.27421808
   20 O                    8.0000    -1.22332209     0.66556948     1.29147296
   21 N                    7.0000    -0.05248954    -0.17158367    -0.43155338
   22 H                    1.0000     0.54952312     0.06204583    -1.21460447
   23 C                    6.0000    -0.04822166    -1.55772836     0.04276053
   24 H                    1.0000    -1.06398559    -1.81629200     0.34201707
   25 C                    6.0000     0.36733149    -2.48014039    -1.11676075
   26 H                    1.0000    -0.33445038    -2.34939574    -1.94138736
   27 H                    1.0000     1.35628084    -2.18305910    -1.46910560
   28 C                    6.0000     0.41840108    -3.96741081    -0.73960747
   29 H                    1.0000     0.67513430    -4.53813654    -1.63268932
   30 H                    1.0000     1.22349564    -4.11558079    -0.02049316
   31 S                   16.0000    -1.10636743    -4.66144323    -0.03471527
   32 C                    6.0000    -2.22202385    -4.55956436    -1.46060356
   33 H                    1.0000    -2.37818131    -3.51728522    -1.73760542
   34 H                    1.0000    -1.79183855    -5.10156759    -2.30363150
   35 H                    1.0000    -3.18200621    -5.00601753    -1.19992091
   36 C                    6.0000     0.86439254    -1.72139034     1.27259348
   37 O                    8.0000     1.93580919    -1.12899705     1.35645383
   38 N                    7.0000     0.47451482    -2.54846539     2.23313304
   39 H                    1.0000    -0.39580165    -3.04702543     2.14702772
   40 H                    1.0000     1.06692163    -2.65520728     3.03945763

         Total SCF energy =  -1343.201898761131

 Vector  138  Occ=0.000000D+00  E= 2.228181D-01

 Vector  139  Occ=0.000000D+00  E= 2.253078D-01

 Vector  140  Occ=0.000000D+00  E= 2.275758D-01

 Vector  141  Occ=0.000000D+00  E= 2.305573D-01

 Vector  142  Occ=0.000000D+00  E= 2.336973D-01

 Vector  143  Occ=0.000000D+00  E= 2.363130D-01

 Vector  144  Occ=0.000000D+00  E= 2.391652D-01

 Vector  145  Occ=0.000000D+00  E= 2.423961D-01

 Vector  146  Occ=0.000000D+00  E= 2.488426D-01

 Vector  147  Occ=0.000000D+00  E= 2.518442D-01

 Vector  148  Occ=0.000000D+00  E= 2.523128D-01

 Vector  149  Occ=0.000000D+00  E= 2.588492D-01

 Vector  150  Occ=0.000000D+00  E= 2.634572D-01

 Vector  151  Occ=0.000000D+00  E= 2.705153D-01

 Vector  152  Occ=0.000000D+00  E= 2.706469D-01

 Vector  153  Occ=0.000000D+00  E= 2.769681D-01

 Vector  154  Occ=0.000000D+00  E= 2.824477D-01

 Vector  155  Occ=0.000000D+00  E= 2.890985D-01

 Vector  156  Occ=0.000000D+00  E= 2.950770D-01

 Vector  157  Occ=0.000000D+00  E= 2.974940D-01

 Vector  158  Occ=0.000000D+00  E= 3.012622D-01

 Vector  159  Occ=0.000000D+00  E= 3.015983D-01

 Vector  160  Occ=0.000000D+00  E= 3.056183D-01

 Vector  161  Occ=0.000000D+00  E= 3.116728D-01

 Vector  162  Occ=0.000000D+00  E= 3.167794D-01

 Vector  163  Occ=0.000000D+00  E= 3.245889D-01

 Vector  164  Occ=0.000000D+00  E= 3.284842D-01

 Vector  165  Occ=0.000000D+00  E= 3.322548D-01

 Vector  166  Occ=0.000000D+00  E= 3.358218D-01

 Vector  167  Occ=0.000000D+00  E= 3.371328D-01

 Vector  168  Occ=0.000000D+00  E= 3.420990D-01

 Vector  169  Occ=0.000000D+00  E= 3.443611D-01

 Vector  170  Occ=0.000000D+00  E= 3.478623D-01

 Vector  171  Occ=0.000000D+00  E= 3.516321D-01

 Vector  172  Occ=0.000000D+00  E= 3.540671D-01

 Vector  173  Occ=0.000000D+00  E= 3.619181D-01

 Vector  174  Occ=0.000000D+00  E= 3.652098D-01

 Vector  175  Occ=0.000000D+00  E= 3.677868D-01

 Vector  176  Occ=0.000000D+00  E= 3.698116D-01

 Vector  177  Occ=0.000000D+00  E= 3.745944D-01

 Vector  178  Occ=0.000000D+00  E= 3.772527D-01

 Vector  179  Occ=0.000000D+00  E= 3.799779D-01

 Vector  180  Occ=0.000000D+00  E= 3.813209D-01

 Vector  181  Occ=0.000000D+00  E= 3.842653D-01

 Vector  182  Occ=0.000000D+00  E= 3.892140D-01

 Vector  183  Occ=0.000000D+00  E= 3.933048D-01

 Vector  184  Occ=0.000000D+00  E= 3.951998D-01

 Vector  185  Occ=0.000000D+00  E= 3.964889D-01

 Vector  186  Occ=0.000000D+00  E= 4.018113D-01

 Vector  187  Occ=0.000000D+00  E= 4.036428D-01

 Vector  188  Occ=0.000000D+00  E= 4.066967D-01

 Vector  189  Occ=0.000000D+00  E= 4.093202D-01

 Vector  190  Occ=0.000000D+00  E= 4.158126D-01

 Vector  191  Occ=0.000000D+00  E= 4.191339D-01

 Vector  192  Occ=0.000000D+00  E= 4.219832D-01

 Vector  193  Occ=0.000000D+00  E= 4.259549D-01

 Vector  194  Occ=0.000000D+00  E= 4.265407D-01

 Vector  195  Occ=0.000000D+00  E= 4.305785D-01

 Vector  196  Occ=0.000000D+00  E= 4.346149D-01

 Vector  197  Occ=0.000000D+00  E= 4.353455D-01

 Vector  198  Occ=0.000000D+00  E= 4.410991D-01

 Vector  199  Occ=0.000000D+00  E= 4.413402D-01

 Vector  200  Occ=0.000000D+00  E= 4.450058D-01

 Vector  201  Occ=0.000000D+00  E= 4.465434D-01

 Vector  202  Occ=0.000000D+00  E= 4.490856D-01

 Vector  203  Occ=0.000000D+00  E= 4.516071D-01

 Vector  204  Occ=0.000000D+00  E= 4.541257D-01

 Vector  205  Occ=0.000000D+00  E= 4.576631D-01

 Vector  206  Occ=0.000000D+00  E= 4.618619D-01

 Vector  207  Occ=0.000000D+00  E= 4.655521D-01

 Vector  208  Occ=0.000000D+00  E= 4.712046D-01

 Vector  209  Occ=0.000000D+00  E= 4.757593D-01

 Vector  210  Occ=0.000000D+00  E= 4.782450D-01

 Vector  211  Occ=0.000000D+00  E= 4.803064D-01

 Vector  212  Occ=0.000000D+00  E= 4.811895D-01

 Vector  213  Occ=0.000000D+00  E= 4.884709D-01

 Vector  214  Occ=0.000000D+00  E= 4.906462D-01

 Vector  215  Occ=0.000000D+00  E= 4.939438D-01

 Vector  216  Occ=0.000000D+00  E= 4.985922D-01

 Vector  217  Occ=0.000000D+00  E= 5.019404D-01

       Multipole analysis of the density wrt the origin
       ------------------------------------------------

     L   x y z        total         open         nuclear
     -   - - -        -----         ----         -------
     0   0 0 0      0.000000      0.000000    162.000000

     1   1 0 0      0.065179      0.000000     -0.000000
     1   0 1 0     -1.504549      0.000000     -0.000000
     1   0 0 1      0.927327      0.000000     -0.000000

     2   2 0 0    -87.187258      0.000000   1438.857055
     2   1 1 0      2.756760      0.000000    -10.472082
     2   1 0 1      4.254973      0.000000      9.444345
     2   0 2 0    -95.888888      0.000000   5816.631021
     2   0 1 1     16.784710      0.000000     74.760670

 Total times  cpu:     6188.7s     wall:     6219.3s
