============================== echo of input deck ==============================
start ASN_GLN_4
geometry
H         -0.62100       18.19400        1.91900
C         -1.25100       17.91700        2.76300
H         -2.11100       18.58100        2.81900
H         -0.67500       17.98500        3.68500
C         -1.72600       16.49500        2.58700
O         -1.42500       15.63500        3.40100
N         -2.45400       16.23500        1.50400
H         -2.63200       16.98500        0.84900
C         -2.97600       14.90500        1.15600
H         -3.39700       14.44800        2.05400
C         -4.09400       15.09600        0.11500
H         -4.62400       14.15300       -0.02000
H         -4.81100       15.83900        0.46400
C         -3.52700       15.55000       -1.22000
O         -3.08200       16.67600       -1.36800
N         -3.45200       14.66900       -2.18800
H         -3.69500       13.71000       -2.01200
H         -2.93600       14.93100       -3.02300
C         -1.90700       13.93000        0.60600
O         -2.24400       12.81200        0.22000
N         -0.65900       14.38000        0.46200
H         -0.43400       15.28000        0.86100
C          0.39300       13.73000       -0.32300
H          0.35200       12.65500       -0.14100
C          0.14100       13.98400       -1.82500
H          0.87300       13.42900       -2.41200
H         -0.84200       13.57900       -2.06600
C          0.20300       15.47400       -2.23400
H         -0.24900       16.09400       -1.46000
H          1.24800       15.77100       -2.32600
C         -0.52400       15.80200       -3.53800
O         -1.32400       15.04900       -4.07000
N         -0.29300       16.96400       -4.10400
H          0.31400       17.63300       -3.67000
H         -0.82000       17.15900       -4.93600
C          1.77800       14.24200        0.09900
O          1.93200       15.39000        0.50400
N          2.81200       13.42100       -0.02200
H          2.67900       12.48200       -0.35900
H          3.71900       13.75900        0.25300
end

basis
 * library aug-cc-pvdz
end

echo

scf
 direct
end

task scf energy
================================================================================

 Output coordinates in angstroms (scale by  1.889725989 to convert to a.u.)

  No.       Tag          Charge          X              Y              Z
 ---- ---------------- ---------- -------------- -------------- --------------
    1 H                    1.0000     0.42090686    -2.38707474     2.95226994
    2 C                    6.0000     0.16078530    -3.33908270     2.49185422
    3 H                    1.0000    -0.77515675    -3.70885091     2.90527404
    4 H                    1.0000     0.95417632    -4.06200291     2.67732938
    5 C                    6.0000     0.01061603    -3.14948837     1.00182463
    6 O                    8.0000     0.74035692    -3.74531097     0.22383320
    7 N                    7.0000    -0.92553795    -2.29508046     0.59676183
    8 H                    1.0000    -1.46741012    -1.80384405     1.29552526
    9 C                    6.0000    -1.19305570    -1.96502422    -0.81106811
   10 H                    1.0000    -1.20084742    -2.88953863    -1.39219322
   11 C                    6.0000    -2.58460331    -1.31060180    -0.88463815
   12 H                    1.0000    -2.88808703    -1.22830292    -1.92842861
   13 H                    1.0000    -3.31913641    -1.92774902    -0.36740568
   14 C                    6.0000    -2.57325740     0.07193340    -0.25352986
   15 O                    8.0000    -2.47751794     0.21509552     0.95400630
   16 N                    7.0000    -2.58477624     1.11232227    -1.05119415
   17 H                    1.0000    -2.52575624     0.98129351    -2.04570614
   18 H                    1.0000    -2.42352548     2.02513867    -0.63539441
   19 C                    6.0000    -0.13872476    -1.03123176    -1.45317706
   20 O                    8.0000    -0.29788428    -0.63591730    -2.60681640
   21 N                    7.0000     0.86134994    -0.59028217    -0.68757008
   22 H                    1.0000     0.97340256    -1.00571413     0.22604171
   23 C                    6.0000     1.75109070     0.52687126    -1.01277554
   24 H                    1.0000     2.02613901     0.46005206    -2.06648974
   25 C                    6.0000     1.00435117     1.85870803    -0.78339619
   26 H                    1.0000     1.63578890     2.68619428    -1.10738830
   27 H                    1.0000     0.12180486     1.85463766    -1.42331058
   28 C                    6.0000     0.58059280     2.10212594     0.68371034
   29 H                    1.0000     0.24834270     1.16857083     1.13743354
   30 H                    1.0000     1.44576834     2.45289686     1.24685245
   31 C                    6.0000    -0.56242696     3.10273443     0.85346746
   32 O                    8.0000    -1.28043446     3.46598157    -0.06443763
   33 N                    7.0000    -0.79892476     3.57963490     2.05371566
   34 H                    1.0000    -0.26841363     3.26437128     2.84335658
   35 H                    1.0000    -1.58305285     4.20175686     2.13172467
   36 C                    6.0000     3.03350343     0.46050167    -0.17047769
   37 O                    8.0000     3.02234653    -0.00800903     0.96354976
   38 N                    7.0000     4.14805048     0.95871028    -0.68759573
   39 H                    1.0000     4.14895366     1.34539626    -1.61681698
   40 H                    1.0000     4.98681034     0.91624184    -0.13334279

         Total SCF energy =  -1074.447305886656

 Vector  133  Occ=0.000000D+00  E= 2.154073D-01

 Vector  134  Occ=0.000000D+00  E= 2.193315D-01

 Vector  135  Occ=0.000000D+00  E= 2.246626D-01

 Vector  136  Occ=0.000000D+00  E= 2.259757D-01

 Vector  137  Occ=0.000000D+00  E= 2.304046D-01

 Vector  138  Occ=0.000000D+00  E= 2.323222D-01

 Vector  139  Occ=0.000000D+00  E= 2.352509D-01

 Vector  140  Occ=0.000000D+00  E= 2.396484D-01

 Vector  141  Occ=0.000000D+00  E= 2.406701D-01

 Vector  142  Occ=0.000000D+00  E= 2.454955D-01

 Vector  143  Occ=0.000000D+00  E= 2.486408D-01

 Vector  144  Occ=0.000000D+00  E= 2.526304D-01

 Vector  145  Occ=0.000000D+00  E= 2.606904D-01

 Vector  146  Occ=0.000000D+00  E= 2.651844D-01

 Vector  147  Occ=0.000000D+00  E= 2.682371D-01

 Vector  148  Occ=0.000000D+00  E= 2.712266D-01

 Vector  149  Occ=0.000000D+00  E= 2.760974D-01

 Vector  150  Occ=0.000000D+00  E= 2.781491D-01

 Vector  151  Occ=0.000000D+00  E= 2.863777D-01

 Vector  152  Occ=0.000000D+00  E= 2.957436D-01

 Vector  153  Occ=0.000000D+00  E= 2.975620D-01

 Vector  154  Occ=0.000000D+00  E= 3.050836D-01

 Vector  155  Occ=0.000000D+00  E= 3.105824D-01

 Vector  156  Occ=0.000000D+00  E= 3.112079D-01

 Vector  157  Occ=0.000000D+00  E= 3.135381D-01

 Vector  158  Occ=0.000000D+00  E= 3.154290D-01

 Vector  159  Occ=0.000000D+00  E= 3.205252D-01

 Vector  160  Occ=0.000000D+00  E= 3.298451D-01

 Vector  161  Occ=0.000000D+00  E= 3.336882D-01

 Vector  162  Occ=0.000000D+00  E= 3.373055D-01

 Vector  163  Occ=0.000000D+00  E= 3.390511D-01

 Vector  164  Occ=0.000000D+00  E= 3.436308D-01

 Vector  165  Occ=0.000000D+00  E= 3.451276D-01

 Vector  166  Occ=0.000000D+00  E= 3.458660D-01

 Vector  167  Occ=0.000000D+00  E= 3.478964D-01

 Vector  168  Occ=0.000000D+00  E= 3.524781D-01

 Vector  169  Occ=0.000000D+00  E= 3.549728D-01

 Vector  170  Occ=0.000000D+00  E= 3.614641D-01

 Vector  171  Occ=0.000000D+00  E= 3.648068D-01

 Vector  172  Occ=0.000000D+00  E= 3.657280D-01

 Vector  173  Occ=0.000000D+00  E= 3.719160D-01

 Vector  174  Occ=0.000000D+00  E= 3.739898D-01

 Vector  175  Occ=0.000000D+00  E= 3.755382D-01

 Vector  176  Occ=0.000000D+00  E= 3.788795D-01

 Vector  177  Occ=0.000000D+00  E= 3.800223D-01

 Vector  178  Occ=0.000000D+00  E= 3.826924D-01

 Vector  179  Occ=0.000000D+00  E= 3.912897D-01

 Vector  180  Occ=0.000000D+00  E= 3.939328D-01

 Vector  181  Occ=0.000000D+00  E= 3.950962D-01

 Vector  182  Occ=0.000000D+00  E= 4.005495D-01

 Vector  183  Occ=0.000000D+00  E= 4.027381D-01

 Vector  184  Occ=0.000000D+00  E= 4.081654D-01

 Vector  185  Occ=0.000000D+00  E= 4.121474D-01

 Vector  186  Occ=0.000000D+00  E= 4.134770D-01

 Vector  187  Occ=0.000000D+00  E= 4.155552D-01

 Vector  188  Occ=0.000000D+00  E= 4.198129D-01

 Vector  189  Occ=0.000000D+00  E= 4.229757D-01

 Vector  190  Occ=0.000000D+00  E= 4.234694D-01

 Vector  191  Occ=0.000000D+00  E= 4.247855D-01

 Vector  192  Occ=0.000000D+00  E= 4.285929D-01

 Vector  193  Occ=0.000000D+00  E= 4.333353D-01

 Vector  194  Occ=0.000000D+00  E= 4.371684D-01

 Vector  195  Occ=0.000000D+00  E= 4.394767D-01

 Vector  196  Occ=0.000000D+00  E= 4.426795D-01

 Vector  197  Occ=0.000000D+00  E= 4.458199D-01

 Vector  198  Occ=0.000000D+00  E= 4.506029D-01

 Vector  199  Occ=0.000000D+00  E= 4.547294D-01

 Vector  200  Occ=0.000000D+00  E= 4.571029D-01

 Vector  201  Occ=0.000000D+00  E= 4.592306D-01

 Vector  202  Occ=0.000000D+00  E= 4.612469D-01

 Vector  203  Occ=0.000000D+00  E= 4.685367D-01

 Vector  204  Occ=0.000000D+00  E= 4.718389D-01

 Vector  205  Occ=0.000000D+00  E= 4.776726D-01

 Vector  206  Occ=0.000000D+00  E= 4.823743D-01

 Vector  207  Occ=0.000000D+00  E= 4.837174D-01

 Vector  208  Occ=0.000000D+00  E= 4.871707D-01

 Vector  209  Occ=0.000000D+00  E= 4.945932D-01

 Vector  210  Occ=0.000000D+00  E= 4.980619D-01

 Vector  211  Occ=0.000000D+00  E= 4.991358D-01

 Vector  212  Occ=0.000000D+00  E= 5.059206D-01

       Multipole analysis of the density wrt the origin
       ------------------------------------------------

     L   x y z        total         open         nuclear
     -   - - -        -----         ----         -------
     0   0 0 0      0.000000      0.000000    160.000000

     1   1 0 0      0.592818      0.000000      0.000000
     1   0 1 0      1.451356      0.000000      0.000000
     1   0 0 1      0.743458      0.000000     -0.000000

     2   2 0 0    -82.066153      0.000000   2095.921730
     2   1 1 0     15.824814      0.000000     31.301772
     2   1 0 1     -4.277039      0.000000     -0.958089
     2   0 2 0    -98.135425      0.000000   2636.653002
     2   0 1 1      0.748946      0.000000    -24.211360

 Total times  cpu:     6888.9s     wall:     6923.2s
