============================== echo of input deck ==============================
start ASN_CYS_4
geometry
H         10.93800       13.46800       -0.87600
C         11.96700       13.13900       -0.74300
H         12.64400       13.88300       -1.16200
H         12.12200       12.18600       -1.24500
C         12.26000       12.98400        0.73000
O         13.15100       13.64300        1.25600
N         11.51500       12.10600        1.40200
H         10.82200       11.57800        0.89900
C         11.73200       11.80200        2.81900
H         11.82400       12.74500        3.36400
C         10.51500       11.05200        3.39100
H          9.62000       11.66500        3.29000
H         10.37400       10.12200        2.84100
C         10.70700       10.72200        4.86500
O         11.50600       11.31900        5.56800
N          9.98900        9.75500        5.38400
H          9.36000        9.22100        4.81600
H         10.16300        9.54700        6.35100
C         13.04400       11.02300        3.03200
O         13.06000        9.79400        3.01900
N         14.13500       11.75400        3.24600
H         14.05100       12.75500        3.13600
C         15.46600       11.20900        3.52300
H         15.61100       10.32400        2.90100
C         16.51300       12.25500        3.10700
H         16.40500       13.15400        3.71600
H         17.51100       11.84300        3.27500
S         16.33700       12.67600        1.34400
H         15.11700       13.23700        1.39700
C         15.66200       10.74300        4.98500
O         16.77400       10.42700        5.38900
N         14.62600       10.71700        5.81800
H         13.70000       10.96400        5.50000
H         14.78500       10.41600        6.76400
end

basis
 * library aug-cc-pvdz
end

echo

scf
 direct
end

task scf energy
================================================================================

 Output coordinates in angstroms (scale by  1.889725989 to convert to a.u.)

  No.       Tag          Charge          X              Y              Z
 ---- ---------------- ---------- -------------- -------------- --------------
    1 H                    1.0000    -5.02463502    -0.62686306    -0.01267296
    2 C                    6.0000    -4.38704294     0.20016094    -0.31972120
    3 H                    1.0000    -4.77902425     1.13219299     0.08659506
    4 H                    1.0000    -4.35585402     0.26419595    -1.40561474
    5 C                    6.0000    -2.99018557    -0.01670730     0.21071322
    6 O                    8.0000    -2.48195426     0.80367090     0.96802329
    7 N                    7.0000    -2.35974511    -1.12105632    -0.18985022
    8 H                    1.0000    -2.82661598    -1.73426477    -0.83641729
    9 C                    6.0000    -0.97766359    -1.42706790     0.18909777
   10 H                    1.0000    -0.87472476    -1.27919061     1.26718585
   11 C                    6.0000    -0.66269091    -2.90445606    -0.10904556
   12 H                    1.0000    -1.33825853    -3.54878759     0.45259514
   13 H                    1.0000    -0.79379877    -3.09277024    -1.17423544
   14 C                    6.0000     0.76770837    -3.25718506     0.27563635
   15 O                    8.0000     1.41285347    -2.59055223     1.06835791
   16 N                    7.0000     1.31783107    -4.31167408    -0.27698641
   17 H                    1.0000     0.82394974    -4.84759386    -0.96422160
   18 H                    1.0000     2.27112500    -4.49677438    -0.02086618
   19 C                    6.0000     0.01779136    -0.47324131    -0.49853460
   20 O                    8.0000     0.51391188    -0.75336609    -1.58769049
   21 N                    7.0000     0.31433361     0.64391573     0.16060183
   22 H                    1.0000    -0.21688597     0.84347836     0.99674626
   23 C                    6.0000     1.27478238     1.65262556    -0.29256221
   24 H                    1.0000     1.17491140     1.76056337    -1.37400070
   25 C                    6.0000     0.90362235     2.99788759     0.35233415
   26 H                    1.0000     1.00114533     2.93138792     1.43714430
   27 H                    1.0000     1.59221834     3.76551590    -0.00898889
   28 S                   16.0000    -0.79744477     3.47556742    -0.08877650
   29 H                    1.0000    -1.44828807     2.47237388     0.52435948
   30 C                    6.0000     2.75217401     1.27417049    -0.03352220
   31 O                    8.0000     3.64095850     2.09818151    -0.20869059
   32 N                    7.0000     3.05777856     0.05993476     0.41380147
   33 H                    1.0000     2.33951749    -0.63578836     0.55408463
   34 H                    1.0000     4.02581797    -0.15518941     0.57938917

         Total SCF energy =  -1265.123956135021

 Vector  112  Occ=0.000000D+00  E= 1.859695D-01

 Vector  113  Occ=0.000000D+00  E= 1.875048D-01

 Vector  114  Occ=0.000000D+00  E= 1.905561D-01

 Vector  115  Occ=0.000000D+00  E= 1.930093D-01

 Vector  116  Occ=0.000000D+00  E= 1.981034D-01

 Vector  117  Occ=0.000000D+00  E= 2.010608D-01

 Vector  118  Occ=0.000000D+00  E= 2.054165D-01

 Vector  119  Occ=0.000000D+00  E= 2.065575D-01

 Vector  120  Occ=0.000000D+00  E= 2.074070D-01

 Vector  121  Occ=0.000000D+00  E= 2.146932D-01

 Vector  122  Occ=0.000000D+00  E= 2.156176D-01

 Vector  123  Occ=0.000000D+00  E= 2.174760D-01

 Vector  124  Occ=0.000000D+00  E= 2.251710D-01

 Vector  125  Occ=0.000000D+00  E= 2.266288D-01

 Vector  126  Occ=0.000000D+00  E= 2.298480D-01

 Vector  127  Occ=0.000000D+00  E= 2.366116D-01

 Vector  128  Occ=0.000000D+00  E= 2.391096D-01

 Vector  129  Occ=0.000000D+00  E= 2.463099D-01

 Vector  130  Occ=0.000000D+00  E= 2.496666D-01

 Vector  131  Occ=0.000000D+00  E= 2.521678D-01

 Vector  132  Occ=0.000000D+00  E= 2.613851D-01

 Vector  133  Occ=0.000000D+00  E= 2.681411D-01

 Vector  134  Occ=0.000000D+00  E= 2.737052D-01

 Vector  135  Occ=0.000000D+00  E= 2.777330D-01

 Vector  136  Occ=0.000000D+00  E= 2.795958D-01

 Vector  137  Occ=0.000000D+00  E= 2.874693D-01

 Vector  138  Occ=0.000000D+00  E= 2.939867D-01

 Vector  139  Occ=0.000000D+00  E= 2.975695D-01

 Vector  140  Occ=0.000000D+00  E= 3.009081D-01

 Vector  141  Occ=0.000000D+00  E= 3.049744D-01

 Vector  142  Occ=0.000000D+00  E= 3.075510D-01

 Vector  143  Occ=0.000000D+00  E= 3.195593D-01

 Vector  144  Occ=0.000000D+00  E= 3.216714D-01

 Vector  145  Occ=0.000000D+00  E= 3.262421D-01

 Vector  146  Occ=0.000000D+00  E= 3.285202D-01

 Vector  147  Occ=0.000000D+00  E= 3.331998D-01

 Vector  148  Occ=0.000000D+00  E= 3.364410D-01

 Vector  149  Occ=0.000000D+00  E= 3.397420D-01

 Vector  150  Occ=0.000000D+00  E= 3.446904D-01

 Vector  151  Occ=0.000000D+00  E= 3.456780D-01

 Vector  152  Occ=0.000000D+00  E= 3.525818D-01

 Vector  153  Occ=0.000000D+00  E= 3.552768D-01

 Vector  154  Occ=0.000000D+00  E= 3.607391D-01

 Vector  155  Occ=0.000000D+00  E= 3.616509D-01

 Vector  156  Occ=0.000000D+00  E= 3.647264D-01

 Vector  157  Occ=0.000000D+00  E= 3.696600D-01

 Vector  158  Occ=0.000000D+00  E= 3.740788D-01

 Vector  159  Occ=0.000000D+00  E= 3.759275D-01

 Vector  160  Occ=0.000000D+00  E= 3.812736D-01

 Vector  161  Occ=0.000000D+00  E= 3.821107D-01

 Vector  162  Occ=0.000000D+00  E= 3.860834D-01

 Vector  163  Occ=0.000000D+00  E= 3.914734D-01

 Vector  164  Occ=0.000000D+00  E= 3.955017D-01

 Vector  165  Occ=0.000000D+00  E= 4.004231D-01

 Vector  166  Occ=0.000000D+00  E= 4.036258D-01

 Vector  167  Occ=0.000000D+00  E= 4.087640D-01

 Vector  168  Occ=0.000000D+00  E= 4.110756D-01

 Vector  169  Occ=0.000000D+00  E= 4.136944D-01

 Vector  170  Occ=0.000000D+00  E= 4.166080D-01

 Vector  171  Occ=0.000000D+00  E= 4.190863D-01

 Vector  172  Occ=0.000000D+00  E= 4.283580D-01

 Vector  173  Occ=0.000000D+00  E= 4.320870D-01

 Vector  174  Occ=0.000000D+00  E= 4.350263D-01

 Vector  175  Occ=0.000000D+00  E= 4.394571D-01

 Vector  176  Occ=0.000000D+00  E= 4.403813D-01

 Vector  177  Occ=0.000000D+00  E= 4.422767D-01

 Vector  178  Occ=0.000000D+00  E= 4.463714D-01

 Vector  179  Occ=0.000000D+00  E= 4.484374D-01

 Vector  180  Occ=0.000000D+00  E= 4.571202D-01

 Vector  181  Occ=0.000000D+00  E= 4.575980D-01

 Vector  182  Occ=0.000000D+00  E= 4.621188D-01

 Vector  183  Occ=0.000000D+00  E= 4.700338D-01

 Vector  184  Occ=0.000000D+00  E= 4.744439D-01

 Vector  185  Occ=0.000000D+00  E= 4.772557D-01

 Vector  186  Occ=0.000000D+00  E= 4.855201D-01

 Vector  187  Occ=0.000000D+00  E= 4.894480D-01

 Vector  188  Occ=0.000000D+00  E= 4.920254D-01

 Vector  189  Occ=0.000000D+00  E= 4.962812D-01

 Vector  190  Occ=0.000000D+00  E= 4.980848D-01

 Vector  191  Occ=0.000000D+00  E= 5.024678D-01

       Multipole analysis of the density wrt the origin
       ------------------------------------------------

     L   x y z        total         open         nuclear
     -   - - -        -----         ----         -------
     0   0 0 0     -0.000000      0.000000    146.000000

     1   1 0 0     -2.407617      0.000000      0.000000
     1   0 1 0     -3.737193      0.000000      0.000000
     1   0 0 1     -0.117878      0.000000     -0.000000

     2   2 0 0    -83.284442      0.000000   2338.373471
     2   1 1 0     -2.587724      0.000000      1.566781
     2   1 0 1      5.683008      0.000000     15.869940
     2   0 2 0    -75.982370      0.000000   2668.533799
     2   0 1 1      5.501875      0.000000     17.344102

 Total times  cpu:     4379.1s     wall:     4400.8s
