============================== echo of input deck ==============================
start ASN_CYS_0
geometry
H          7.50200        1.92600       -1.47700
C          7.04000        2.11600       -0.50900
H          7.69700        2.74300        0.09100
H          6.86400        1.17100        0.00200
C          5.72400        2.82600       -0.71800
O          5.36200        3.13200       -1.84800
N          5.01800        3.10900        0.37400
H          5.40800        2.82100        1.26300
C          3.70400        3.77100        0.41500
H          3.07200        3.30100       -0.34100
C          3.07100        3.48800        1.79300
H          2.12800        4.02500        1.89200
H          2.85600        2.42200        1.87200
C          3.98900        3.85700        2.94600
O          4.75900        3.04500        3.42400
N          3.98800        5.09300        3.37600
H          4.62500        5.31900        4.11800
H          3.47800        5.79100        2.85200
C          3.74200        5.28100        0.05700
O          3.27000        6.12700        0.81700
N          4.31600        5.62200       -1.09800
H          4.66800        4.86000       -1.66500
C          4.64300        6.98100       -1.55500
H          5.08600        7.51400       -0.71300
C          5.71400        6.88200       -2.65700
H          5.27900        6.44400       -3.55700
H          6.05700        7.88900       -2.90500
S          7.14000        5.88600       -2.12100
H          6.57500        4.67900       -2.28900
C          3.42900        7.83100       -2.00700
O          3.51900        8.60800       -2.95000
N          2.26600        7.68900       -1.38600
H          2.20900        7.09100       -0.57400
H          1.48600        8.24200       -1.69800
end

basis
 * library aug-cc-pvdz
end

echo

scf
 direct
end

task scf energy
================================================================================

 Output coordinates in angstroms (scale by  1.889725989 to convert to a.u.)

  No.       Tag          Charge          X              Y              Z
 ---- ---------------- ---------- -------------- -------------- --------------
    1 H                    1.0000     4.20984846    -1.29656539    -0.44108932
    2 C                    6.0000     3.33648106    -1.88163160    -0.15561618
    3 H                    1.0000     3.24863708    -1.89871944     0.92917386
    4 H                    1.0000     3.43954974    -2.89738481    -0.53343129
    5 C                    6.0000     2.10013281    -1.24907142    -0.74802452
    6 O                    8.0000     2.18811057    -0.21020756    -1.39192031
    7 N                    7.0000     0.94330548    -1.86286892    -0.51139789
    8 H                    1.0000     0.97577906    -2.71200799     0.03930467
    9 C                    6.0000    -0.38042907    -1.44691688    -1.00255135
   10 H                    1.0000    -0.28088701    -1.20870555    -2.06330898
   11 C                    6.0000    -1.33342383    -2.65410043    -0.88350990
   12 H                    1.0000    -2.34511970    -2.36496490    -1.16686675
   13 H                    1.0000    -1.00568122    -3.43353426    -1.57190636
   14 C                    6.0000    -1.34860887    -3.25270071     0.51282141
   15 O                    8.0000    -0.59041583    -4.15304920     0.82143752
   16 N                    7.0000    -2.14993436    -2.73347058     1.40773735
   17 H                    1.0000    -2.11959055    -3.12639188     2.33083058
   18 H                    1.0000    -2.63750404    -1.87602826     1.18649433
   19 C                    6.0000    -0.93279630    -0.16189289    -0.32926701
   20 O                    8.0000    -2.04230191    -0.15007939     0.20454733
   21 N                    7.0000    -0.15261169     0.92018912    -0.34314069
   22 H                    1.0000     0.73930741     0.82288284    -0.81329898
   23 C                    6.0000    -0.37070854     2.17635618     0.38975568
   24 H                    1.0000    -0.68085634     1.91717989     1.40264165
   25 C                    6.0000     0.97248195     2.92240823     0.49218436
   26 H                    1.0000     1.26802053     3.28856884    -0.49252491
   27 H                    1.0000     0.84521651     3.78657513     1.14809677
   28 S                   16.0000     2.28427489     1.85568339     1.16604295
   29 H                    1.0000     2.53132571     1.16239805     0.04237959
   30 C                    6.0000    -1.49043927     3.08271787    -0.18060523
   31 O                    8.0000    -1.38080335     4.30294543    -0.17047340
   32 N                    7.0000    -2.56749955     2.52785234    -0.71952953
   33 H                    1.0000    -2.68152290     1.52522293    -0.67559849
   34 H                    1.0000    -3.28059567     3.13074244    -1.09312082

         Total SCF energy =  -1265.122126664970

 Vector  112  Occ=0.000000D+00  E= 1.792167D-01

 Vector  113  Occ=0.000000D+00  E= 1.826749D-01

 Vector  114  Occ=0.000000D+00  E= 1.855614D-01

 Vector  115  Occ=0.000000D+00  E= 1.906162D-01

 Vector  116  Occ=0.000000D+00  E= 1.927607D-01

 Vector  117  Occ=0.000000D+00  E= 1.977258D-01

 Vector  118  Occ=0.000000D+00  E= 2.008788D-01

 Vector  119  Occ=0.000000D+00  E= 2.017154D-01

 Vector  120  Occ=0.000000D+00  E= 2.055027D-01

 Vector  121  Occ=0.000000D+00  E= 2.105113D-01

 Vector  122  Occ=0.000000D+00  E= 2.179864D-01

 Vector  123  Occ=0.000000D+00  E= 2.226865D-01

 Vector  124  Occ=0.000000D+00  E= 2.252330D-01

 Vector  125  Occ=0.000000D+00  E= 2.260074D-01

 Vector  126  Occ=0.000000D+00  E= 2.297267D-01

 Vector  127  Occ=0.000000D+00  E= 2.310160D-01

 Vector  128  Occ=0.000000D+00  E= 2.377958D-01

 Vector  129  Occ=0.000000D+00  E= 2.400526D-01

 Vector  130  Occ=0.000000D+00  E= 2.466575D-01

 Vector  131  Occ=0.000000D+00  E= 2.494563D-01

 Vector  132  Occ=0.000000D+00  E= 2.504759D-01

 Vector  133  Occ=0.000000D+00  E= 2.554052D-01

 Vector  134  Occ=0.000000D+00  E= 2.613948D-01

 Vector  135  Occ=0.000000D+00  E= 2.678165D-01

 Vector  136  Occ=0.000000D+00  E= 2.740961D-01

 Vector  137  Occ=0.000000D+00  E= 2.805749D-01

 Vector  138  Occ=0.000000D+00  E= 2.867833D-01

 Vector  139  Occ=0.000000D+00  E= 2.917829D-01

 Vector  140  Occ=0.000000D+00  E= 2.930792D-01

 Vector  141  Occ=0.000000D+00  E= 3.062074D-01

 Vector  142  Occ=0.000000D+00  E= 3.065493D-01

 Vector  143  Occ=0.000000D+00  E= 3.153263D-01

 Vector  144  Occ=0.000000D+00  E= 3.167677D-01

 Vector  145  Occ=0.000000D+00  E= 3.212221D-01

 Vector  146  Occ=0.000000D+00  E= 3.262008D-01

 Vector  147  Occ=0.000000D+00  E= 3.295603D-01

 Vector  148  Occ=0.000000D+00  E= 3.323439D-01

 Vector  149  Occ=0.000000D+00  E= 3.378740D-01

 Vector  150  Occ=0.000000D+00  E= 3.386343D-01

 Vector  151  Occ=0.000000D+00  E= 3.402473D-01

 Vector  152  Occ=0.000000D+00  E= 3.433665D-01

 Vector  153  Occ=0.000000D+00  E= 3.471710D-01

 Vector  154  Occ=0.000000D+00  E= 3.490166D-01

 Vector  155  Occ=0.000000D+00  E= 3.567928D-01

 Vector  156  Occ=0.000000D+00  E= 3.602341D-01

 Vector  157  Occ=0.000000D+00  E= 3.627150D-01

 Vector  158  Occ=0.000000D+00  E= 3.675625D-01

 Vector  159  Occ=0.000000D+00  E= 3.711045D-01

 Vector  160  Occ=0.000000D+00  E= 3.742263D-01

 Vector  161  Occ=0.000000D+00  E= 3.781731D-01

 Vector  162  Occ=0.000000D+00  E= 3.782749D-01

 Vector  163  Occ=0.000000D+00  E= 3.821001D-01

 Vector  164  Occ=0.000000D+00  E= 3.869900D-01

 Vector  165  Occ=0.000000D+00  E= 3.920872D-01

 Vector  166  Occ=0.000000D+00  E= 3.955723D-01

 Vector  167  Occ=0.000000D+00  E= 4.018980D-01

 Vector  168  Occ=0.000000D+00  E= 4.052907D-01

 Vector  169  Occ=0.000000D+00  E= 4.084400D-01

 Vector  170  Occ=0.000000D+00  E= 4.118842D-01

 Vector  171  Occ=0.000000D+00  E= 4.166430D-01

 Vector  172  Occ=0.000000D+00  E= 4.186838D-01

 Vector  173  Occ=0.000000D+00  E= 4.234956D-01

 Vector  174  Occ=0.000000D+00  E= 4.279155D-01

 Vector  175  Occ=0.000000D+00  E= 4.306403D-01

 Vector  176  Occ=0.000000D+00  E= 4.362687D-01

 Vector  177  Occ=0.000000D+00  E= 4.410503D-01

 Vector  178  Occ=0.000000D+00  E= 4.412890D-01

 Vector  179  Occ=0.000000D+00  E= 4.448510D-01

 Vector  180  Occ=0.000000D+00  E= 4.531391D-01

 Vector  181  Occ=0.000000D+00  E= 4.560811D-01

 Vector  182  Occ=0.000000D+00  E= 4.628733D-01

 Vector  183  Occ=0.000000D+00  E= 4.730825D-01

 Vector  184  Occ=0.000000D+00  E= 4.760410D-01

 Vector  185  Occ=0.000000D+00  E= 4.767312D-01

 Vector  186  Occ=0.000000D+00  E= 4.795239D-01

 Vector  187  Occ=0.000000D+00  E= 4.877274D-01

 Vector  188  Occ=0.000000D+00  E= 4.909887D-01

 Vector  189  Occ=0.000000D+00  E= 4.923772D-01

 Vector  190  Occ=0.000000D+00  E= 4.979387D-01

 Vector  191  Occ=0.000000D+00  E= 5.030109D-01

       Multipole analysis of the density wrt the origin
       ------------------------------------------------

     L   x y z        total         open         nuclear
     -   - - -        -----         ----         -------
     0   0 0 0      0.000000      0.000000    146.000000

     1   1 0 0     -0.463115      0.000000     -0.000000
     1   0 1 0     -1.530547      0.000000      0.000000
     1   0 0 1     -0.506264      0.000000     -0.000000

     2   2 0 0    -79.862732      0.000000   1734.231883
     2   1 1 0     -1.262748      0.000000    -14.179201
     2   1 0 1      1.396033      0.000000      0.944956
     2   0 2 0   -109.262319      0.000000   3038.603372
     2   0 1 1      3.040184      0.000000      3.219035

 Total times  cpu:     4049.2s     wall:     4061.9s
