============================== echo of input deck ==============================
start ASN_ASN_5
geometry
H         -0.82600        5.93200       -5.56200
C          0.07600        6.53800       -5.63100
H         -0.16900        7.58400       -5.45500
H          0.52200        6.43000       -6.61900
C          1.07000        6.08500       -4.59000
O          1.54800        6.88500       -3.79700
N          1.40000        4.79400       -4.59500
H          0.91600        4.18400       -5.24100
C          2.31000        4.16900       -3.62100
H          1.94000        4.40100       -2.62100
C          2.27600        2.64000       -3.81300
H          2.70400        2.38800       -4.78300
H          2.89000        2.17000       -3.04500
C          0.87400        2.06300       -3.76000
O          0.09600        2.19400       -4.68800
N          0.49800        1.41700       -2.68200
H         -0.43900        1.05400       -2.69100
H          1.12200        1.30400       -1.90600
C          3.76300        4.69000       -3.68100
O          4.55600        4.39800       -2.79000
N          4.11500        5.46000       -4.71200
H          3.38600        5.67800       -5.38000
C          5.41300        6.10600       -4.93300
H          6.19600        5.37600       -4.72000
C          5.49100        6.47800       -6.42700
H          6.43200        6.98300       -6.64100
H          5.45500        5.56800       -7.02600
C          4.33200        7.36500       -6.84800
O          3.30200        6.89200       -7.29700
N          4.43500        8.65500       -6.64800
H          3.63500        9.21700       -6.87100
H          5.22500        9.00200       -6.11800
C          5.68500        7.31600       -3.99900
O          6.25400        8.32200       -4.41800
N          5.25800        7.27300       -2.74500
H          5.40800        8.07300       -2.15400
H          4.81100        6.43500       -2.40200
end

basis
 * library aug-cc-pvdz
end

echo

scf
 direct
end

task scf energy
================================================================================

 Output coordinates in angstroms (scale by  1.889725989 to convert to a.u.)

  No.       Tag          Charge          X              Y              Z
 ---- ---------------- ---------- -------------- -------------- --------------
    1 H                    1.0000    -3.37987591    -1.96303120     1.17284965
    2 C                    6.0000    -3.05018926    -0.92706211     1.11222155
    3 H                    1.0000    -3.45851095    -0.36138193     1.94792264
    4 H                    1.0000    -3.38513602    -0.48436947     0.17490736
    5 C                    6.0000    -1.54343081    -0.87194111     1.17194303
    6 O                    8.0000    -0.97924944    -0.17158813     2.00172497
    7 N                    7.0000    -0.87886729    -1.60327200     0.27800989
    8 H                    1.0000    -1.41481215    -2.20379846    -0.33501790
    9 C                    6.0000     0.58837306    -1.71150514     0.22422918
   10 H                    1.0000     0.93749437    -2.01786931     1.21163958
   11 C                    6.0000     0.97324959    -2.80467881    -0.79199047
   12 H                    1.0000     0.68913782    -2.48303764    -1.79369675
   13 H                    1.0000     2.05462052    -2.93953154    -0.77888922
   14 C                    6.0000     0.29642370    -4.13523684    -0.52205709
   15 O                    8.0000    -0.88059509    -4.31465709    -0.77908658
   16 N                    7.0000     1.00185676    -5.10575827     0.00825258
   17 H                    1.0000     0.51173500    -5.96784101     0.17077333
   18 H                    1.0000     1.96996518    -4.97523570     0.23197328
   19 C                    6.0000     1.31340380    -0.38759603    -0.10416858
   20 O                    8.0000     2.53179586    -0.30738965     0.02652856
   21 N                    7.0000     0.58041606     0.64695239    -0.51914272
   22 H                    1.0000    -0.42045009     0.50019093    -0.56292669
   23 C                    6.0000     1.05232372     2.00167556    -0.82408419
   24 H                    1.0000     1.96222786     1.91770795    -1.42106149
   25 C                    6.0000    -0.03097037     2.68105618    -1.68514162
   26 H                    1.0000     0.26215136     3.70285623    -1.92243111
   27 H                    1.0000    -0.13786450     2.13640881    -2.62329400
   28 C                    6.0000    -1.38098438     2.68920657    -0.98894715
   29 O                    8.0000    -2.18883811     1.79262220    -1.16139660
   30 N                    7.0000    -1.63167550     3.64990865    -0.13518228
   31 H                    1.0000    -2.50049012     3.60262778     0.36331413
   32 H                    1.0000    -0.88181271     4.28160595     0.11794483
   33 C                    6.0000     1.43309096     2.83622398     0.42850722
   34 O                    8.0000     1.17012402     4.03544325     0.49237852
   35 N                    7.0000     2.01208946     2.23164483     1.45609604
   36 H                    1.0000     2.22655264     2.77069027     2.27781165
   37 H                    1.0000     2.24469329     1.25138096     1.38768407

         Total SCF energy =  -1035.410977362729

 Vector  121  Occ=0.000000D+00  E= 1.989148D-01

 Vector  122  Occ=0.000000D+00  E= 1.999692D-01

 Vector  123  Occ=0.000000D+00  E= 2.018814D-01

 Vector  124  Occ=0.000000D+00  E= 2.023761D-01

 Vector  125  Occ=0.000000D+00  E= 2.080368D-01

 Vector  126  Occ=0.000000D+00  E= 2.117178D-01

 Vector  127  Occ=0.000000D+00  E= 2.166122D-01

 Vector  128  Occ=0.000000D+00  E= 2.178140D-01

 Vector  129  Occ=0.000000D+00  E= 2.229679D-01

 Vector  130  Occ=0.000000D+00  E= 2.278636D-01

 Vector  131  Occ=0.000000D+00  E= 2.335782D-01

 Vector  132  Occ=0.000000D+00  E= 2.351177D-01

 Vector  133  Occ=0.000000D+00  E= 2.380643D-01

 Vector  134  Occ=0.000000D+00  E= 2.452450D-01

 Vector  135  Occ=0.000000D+00  E= 2.504972D-01

 Vector  136  Occ=0.000000D+00  E= 2.530836D-01

 Vector  137  Occ=0.000000D+00  E= 2.547524D-01

 Vector  138  Occ=0.000000D+00  E= 2.583214D-01

 Vector  139  Occ=0.000000D+00  E= 2.625117D-01

 Vector  140  Occ=0.000000D+00  E= 2.693027D-01

 Vector  141  Occ=0.000000D+00  E= 2.719665D-01

 Vector  142  Occ=0.000000D+00  E= 2.765775D-01

 Vector  143  Occ=0.000000D+00  E= 2.819453D-01

 Vector  144  Occ=0.000000D+00  E= 2.852690D-01

 Vector  145  Occ=0.000000D+00  E= 2.938415D-01

 Vector  146  Occ=0.000000D+00  E= 2.953859D-01

 Vector  147  Occ=0.000000D+00  E= 3.021283D-01

 Vector  148  Occ=0.000000D+00  E= 3.051737D-01

 Vector  149  Occ=0.000000D+00  E= 3.099715D-01

 Vector  150  Occ=0.000000D+00  E= 3.143523D-01

 Vector  151  Occ=0.000000D+00  E= 3.233615D-01

 Vector  152  Occ=0.000000D+00  E= 3.253354D-01

 Vector  153  Occ=0.000000D+00  E= 3.274418D-01

 Vector  154  Occ=0.000000D+00  E= 3.376971D-01

 Vector  155  Occ=0.000000D+00  E= 3.395824D-01

 Vector  156  Occ=0.000000D+00  E= 3.430155D-01

 Vector  157  Occ=0.000000D+00  E= 3.441648D-01

 Vector  158  Occ=0.000000D+00  E= 3.497487D-01

 Vector  159  Occ=0.000000D+00  E= 3.519815D-01

 Vector  160  Occ=0.000000D+00  E= 3.550751D-01

 Vector  161  Occ=0.000000D+00  E= 3.583941D-01

 Vector  162  Occ=0.000000D+00  E= 3.611572D-01

 Vector  163  Occ=0.000000D+00  E= 3.630161D-01

 Vector  164  Occ=0.000000D+00  E= 3.654914D-01

 Vector  165  Occ=0.000000D+00  E= 3.685254D-01

 Vector  166  Occ=0.000000D+00  E= 3.760139D-01

 Vector  167  Occ=0.000000D+00  E= 3.782940D-01

 Vector  168  Occ=0.000000D+00  E= 3.814582D-01

 Vector  169  Occ=0.000000D+00  E= 3.839920D-01

 Vector  170  Occ=0.000000D+00  E= 3.849792D-01

 Vector  171  Occ=0.000000D+00  E= 3.899133D-01

 Vector  172  Occ=0.000000D+00  E= 3.933413D-01

 Vector  173  Occ=0.000000D+00  E= 3.986242D-01

 Vector  174  Occ=0.000000D+00  E= 4.028060D-01

 Vector  175  Occ=0.000000D+00  E= 4.064126D-01

 Vector  176  Occ=0.000000D+00  E= 4.072232D-01

 Vector  177  Occ=0.000000D+00  E= 4.093577D-01

 Vector  178  Occ=0.000000D+00  E= 4.119680D-01

 Vector  179  Occ=0.000000D+00  E= 4.207638D-01

 Vector  180  Occ=0.000000D+00  E= 4.239315D-01

 Vector  181  Occ=0.000000D+00  E= 4.288801D-01

 Vector  182  Occ=0.000000D+00  E= 4.326030D-01

 Vector  183  Occ=0.000000D+00  E= 4.356898D-01

 Vector  184  Occ=0.000000D+00  E= 4.376036D-01

 Vector  185  Occ=0.000000D+00  E= 4.414580D-01

 Vector  186  Occ=0.000000D+00  E= 4.448621D-01

 Vector  187  Occ=0.000000D+00  E= 4.462170D-01

 Vector  188  Occ=0.000000D+00  E= 4.493498D-01

 Vector  189  Occ=0.000000D+00  E= 4.562379D-01

 Vector  190  Occ=0.000000D+00  E= 4.580685D-01

 Vector  191  Occ=0.000000D+00  E= 4.591524D-01

 Vector  192  Occ=0.000000D+00  E= 4.656234D-01

 Vector  193  Occ=0.000000D+00  E= 4.693930D-01

 Vector  194  Occ=0.000000D+00  E= 4.720107D-01

 Vector  195  Occ=0.000000D+00  E= 4.761854D-01

 Vector  196  Occ=0.000000D+00  E= 4.814797D-01

 Vector  197  Occ=0.000000D+00  E= 4.840457D-01

 Vector  198  Occ=0.000000D+00  E= 4.932547D-01

 Vector  199  Occ=0.000000D+00  E= 4.957671D-01

 Vector  200  Occ=0.000000D+00  E= 5.006567D-01

       Multipole analysis of the density wrt the origin
       ------------------------------------------------

     L   x y z        total         open         nuclear
     -   - - -        -----         ----         -------
     0   0 0 0      0.000000      0.000000    152.000000

     1   1 0 0      0.856970      0.000000     -0.000000
     1   0 1 0     -1.387302      0.000000     -0.000000
     1   0 0 1     -0.148043      0.000000      0.000000

     2   2 0 0    -90.651298      0.000000   1296.569215
     2   1 1 0    -11.756757      0.000000    -16.593446
     2   1 0 1     -3.094670      0.000000    -13.268789
     2   0 2 0    -77.869875      0.000000   4018.603926
     2   0 1 1     -4.528076      0.000000    -10.775410

 Total times  cpu:     5250.2s     wall:     5275.3s
