============================== echo of input deck ==============================
start ASN_ASN_1
geometry
H          2.11400        9.27700        4.07800
C          1.48500        9.81800        3.37100
H          1.24300       10.80000        3.77200
H          0.57000        9.25600        3.19200
C          2.23400        9.97500        2.07100
O          1.81300        9.45100        1.04400
N          3.36700       10.67300        2.11000
H          3.65700       11.03600        3.01000
C          4.25700       10.93600        0.96600
H          3.63200       11.23800        0.12400
C          5.16700       12.12700        1.32500
H          5.83800       12.34800        0.49500
H          4.55100       13.00900        1.50000
C          5.98600       11.87200        2.57700
O          5.61200       12.26100        3.66800
N          7.08600       11.16900        2.46900
H          7.58900       10.98000        3.31500
H          7.30400       10.73800        1.58000
C          5.04700        9.69000        0.48200
O          6.21700        9.78600        0.10800
N          4.42300        8.51400        0.53300
H          3.46100        8.53500        0.85100
C          5.03900        7.19900        0.34200
H          5.86600        7.29800       -0.36300
C          5.60500        6.73500        1.69800
H          6.14600        5.79800        1.56800
H          6.30800        7.47800        2.07400
C          4.51500        6.54000        2.73800
O          4.18800        7.42600        3.50600
N          3.88600        5.38900        2.75800
H          3.16000        5.28100        3.44200
H          4.08600        4.70100        2.04600
C          4.06200        6.16200       -0.26100
O          4.30100        4.96100       -0.18600
N          2.92600        6.58200       -0.80700
H          2.28800        5.89400       -1.17200
H          2.70400        7.56500       -0.82700
end

basis
 * library aug-cc-pvdz
end

echo

scf
 direct
end

task scf energy
================================================================================

 Output coordinates in angstroms (scale by  1.889725989 to convert to a.u.)

  No.       Tag          Charge          X              Y              Z
 ---- ---------------- ---------- -------------- -------------- --------------
    1 H                    1.0000    -3.01246282     0.62098594     1.44507967
    2 C                    6.0000    -3.39891946     0.81956325     0.44538506
    3 H                    1.0000    -3.86383116     1.80288351     0.42033771
    4 H                    1.0000    -4.12977681     0.05816149     0.17850512
    5 C                    6.0000    -2.25576034     0.77731129    -0.53800296
    6 O                    8.0000    -2.22950570    -0.07135198    -1.42435918
    7 N                    7.0000    -1.28597348     1.67418249    -0.37202257
    8 H                    1.0000    -1.37280210     2.31122929     0.41060196
    9 C                    6.0000    -0.07782008     1.80125931    -1.20522234
   10 H                    1.0000    -0.38882644     1.73965987    -2.24938399
   11 C                    6.0000     0.52199594     3.20251510    -0.97682588
   12 H                    1.0000     1.41904384     3.32828753    -1.58301756
   13 H                    1.0000    -0.20010294     3.95693959    -1.28895071
   14 C                    6.0000     0.86268573     3.45506125     0.48037723
   15 O                    8.0000     0.08828007     4.03320503     1.22032564
   16 N                    7.0000     1.99295383     2.98449950     0.94614398
   17 H                    1.0000     2.17797169     3.12925660     1.92044361
   18 H                    1.0000     2.55466082     2.38833794     0.35227307
   19 C                    6.0000     0.95201893     0.65722760    -1.00151899
   20 O                    8.0000     2.16283989     0.88503206    -1.00463694
   21 N                    7.0000     0.47054758    -0.56477797    -0.77826858
   22 H                    1.0000    -0.53865199    -0.65501742    -0.79781519
   23 C                    6.0000     1.24124705    -1.73205462    -0.34393052
   24 H                    1.0000     2.25085416    -1.65725028    -0.75118081
   25 C                    6.0000     1.33053093    -1.70035824     1.19405899
   26 H                    1.0000     1.97236949    -2.50996895     1.54064775
   27 H                    1.0000     1.77633475    -0.75908788     1.51484405
   28 C                    6.0000    -0.03319214    -1.83077102     1.85054729
   29 O                    8.0000    -0.69820438    -0.85886175     2.15860588
   30 N                    7.0000    -0.51075301    -3.03832119     2.03655860
   31 H                    1.0000    -1.41814016    -3.10681465     2.45911418
   32 H                    1.0000    -0.00330660    -3.83421469     1.67692035
   33 C                    6.0000     0.65075964    -3.06546200    -0.86051194
   34 O                    8.0000     0.96516004    -4.13118684    -0.34038699
   35 N                    7.0000    -0.25213872    -3.04081551    -1.83477017
   36 H                    1.0000    -0.64690690    -3.91421859    -2.14289051
   37 H                    1.0000    -0.54871684    -2.16298419    -2.23154038

         Total SCF energy =  -1035.410841319512

 Vector  121  Occ=0.000000D+00  E= 1.931171D-01

 Vector  122  Occ=0.000000D+00  E= 1.957614D-01

 Vector  123  Occ=0.000000D+00  E= 2.005239D-01

 Vector  124  Occ=0.000000D+00  E= 2.061014D-01

 Vector  125  Occ=0.000000D+00  E= 2.098299D-01

 Vector  126  Occ=0.000000D+00  E= 2.112893D-01

 Vector  127  Occ=0.000000D+00  E= 2.148626D-01

 Vector  128  Occ=0.000000D+00  E= 2.193716D-01

 Vector  129  Occ=0.000000D+00  E= 2.204311D-01

 Vector  130  Occ=0.000000D+00  E= 2.280803D-01

 Vector  131  Occ=0.000000D+00  E= 2.316529D-01

 Vector  132  Occ=0.000000D+00  E= 2.365642D-01

 Vector  133  Occ=0.000000D+00  E= 2.383766D-01

 Vector  134  Occ=0.000000D+00  E= 2.411316D-01

 Vector  135  Occ=0.000000D+00  E= 2.445677D-01

 Vector  136  Occ=0.000000D+00  E= 2.506138D-01

 Vector  137  Occ=0.000000D+00  E= 2.525562D-01

 Vector  138  Occ=0.000000D+00  E= 2.554262D-01

 Vector  139  Occ=0.000000D+00  E= 2.589743D-01

 Vector  140  Occ=0.000000D+00  E= 2.676439D-01

 Vector  141  Occ=0.000000D+00  E= 2.721899D-01

 Vector  142  Occ=0.000000D+00  E= 2.736169D-01

 Vector  143  Occ=0.000000D+00  E= 2.779313D-01

 Vector  144  Occ=0.000000D+00  E= 2.822914D-01

 Vector  145  Occ=0.000000D+00  E= 2.908056D-01

 Vector  146  Occ=0.000000D+00  E= 2.963441D-01

 Vector  147  Occ=0.000000D+00  E= 3.020858D-01

 Vector  148  Occ=0.000000D+00  E= 3.050254D-01

 Vector  149  Occ=0.000000D+00  E= 3.165254D-01

 Vector  150  Occ=0.000000D+00  E= 3.174271D-01

 Vector  151  Occ=0.000000D+00  E= 3.204029D-01

 Vector  152  Occ=0.000000D+00  E= 3.228638D-01

 Vector  153  Occ=0.000000D+00  E= 3.256305D-01

 Vector  154  Occ=0.000000D+00  E= 3.309264D-01

 Vector  155  Occ=0.000000D+00  E= 3.327404D-01

 Vector  156  Occ=0.000000D+00  E= 3.379790D-01

 Vector  157  Occ=0.000000D+00  E= 3.475543D-01

 Vector  158  Occ=0.000000D+00  E= 3.481328D-01

 Vector  159  Occ=0.000000D+00  E= 3.490145D-01

 Vector  160  Occ=0.000000D+00  E= 3.526294D-01

 Vector  161  Occ=0.000000D+00  E= 3.531640D-01

 Vector  162  Occ=0.000000D+00  E= 3.589592D-01

 Vector  163  Occ=0.000000D+00  E= 3.607190D-01

 Vector  164  Occ=0.000000D+00  E= 3.665766D-01

 Vector  165  Occ=0.000000D+00  E= 3.686923D-01

 Vector  166  Occ=0.000000D+00  E= 3.712063D-01

 Vector  167  Occ=0.000000D+00  E= 3.792754D-01

 Vector  168  Occ=0.000000D+00  E= 3.814534D-01

 Vector  169  Occ=0.000000D+00  E= 3.838210D-01

 Vector  170  Occ=0.000000D+00  E= 3.895365D-01

 Vector  171  Occ=0.000000D+00  E= 3.932632D-01

 Vector  172  Occ=0.000000D+00  E= 3.954004D-01

 Vector  173  Occ=0.000000D+00  E= 3.996818D-01

 Vector  174  Occ=0.000000D+00  E= 4.052820D-01

 Vector  175  Occ=0.000000D+00  E= 4.060952D-01

 Vector  176  Occ=0.000000D+00  E= 4.066447D-01

 Vector  177  Occ=0.000000D+00  E= 4.077986D-01

 Vector  178  Occ=0.000000D+00  E= 4.158983D-01

 Vector  179  Occ=0.000000D+00  E= 4.173204D-01

 Vector  180  Occ=0.000000D+00  E= 4.209407D-01

 Vector  181  Occ=0.000000D+00  E= 4.248196D-01

 Vector  182  Occ=0.000000D+00  E= 4.271679D-01

 Vector  183  Occ=0.000000D+00  E= 4.316992D-01

 Vector  184  Occ=0.000000D+00  E= 4.362321D-01

 Vector  185  Occ=0.000000D+00  E= 4.389266D-01

 Vector  186  Occ=0.000000D+00  E= 4.430247D-01

 Vector  187  Occ=0.000000D+00  E= 4.478825D-01

 Vector  188  Occ=0.000000D+00  E= 4.551433D-01

 Vector  189  Occ=0.000000D+00  E= 4.562836D-01

 Vector  190  Occ=0.000000D+00  E= 4.614971D-01

 Vector  191  Occ=0.000000D+00  E= 4.647732D-01

 Vector  192  Occ=0.000000D+00  E= 4.661432D-01

 Vector  193  Occ=0.000000D+00  E= 4.704280D-01

 Vector  194  Occ=0.000000D+00  E= 4.755443D-01

 Vector  195  Occ=0.000000D+00  E= 4.813662D-01

 Vector  196  Occ=0.000000D+00  E= 4.859798D-01

 Vector  197  Occ=0.000000D+00  E= 4.897145D-01

 Vector  198  Occ=0.000000D+00  E= 4.929534D-01

 Vector  199  Occ=0.000000D+00  E= 4.997244D-01

 Vector  200  Occ=0.000000D+00  E= 5.021077D-01

       Multipole analysis of the density wrt the origin
       ------------------------------------------------

     L   x y z        total         open         nuclear
     -   - - -        -----         ----         -------
     0   0 0 0     -0.000000      0.000000    152.000000

     1   1 0 0     -0.249206      0.000000      0.000000
     1   0 1 0     -0.568625      0.000000      0.000000
     1   0 0 1     -0.708138      0.000000      0.000000

     2   2 0 0    -85.336975      0.000000   1204.125191
     2   1 1 0      5.926664      0.000000      4.162825
     2   1 0 1      2.801478      0.000000      0.454878
     2   0 2 0    -95.920789      0.000000   3127.482398
     2   0 1 1     -6.832257      0.000000    -15.778234

 Total times  cpu:     5008.2s     wall:     5024.1s
