============================== echo of input deck ==============================
start ASN_MET_1
geometry
H         -0.38900       24.04300       -6.34000
C          0.48100       24.08200       -5.68700
H          1.05500       24.98400       -5.89600
H          1.10800       23.20700       -5.85000
C          0.02900       24.11300       -4.24800
O          0.34800       25.03800       -3.51600
N         -0.69800       23.08100       -3.82400
H         -0.89900       22.33400       -4.47500
C         -1.21000       22.93800       -2.45200
H         -1.63700       23.89300       -2.14000
C         -2.32500       21.87600       -2.47800
H         -2.82400       21.84900       -1.50900
H         -3.06800       22.13400       -3.23200
C         -1.76600       20.50000       -2.79400
O         -1.53000       20.15800       -3.93900
N         -1.46700       19.70800       -1.79300
H         -1.01600       18.83700       -2.01800
H         -1.54000       20.05100       -0.84900
C         -0.13400       22.56200       -1.40500
O         -0.47400       22.27600       -0.25700
N          1.13100       22.44200       -1.81300
H          1.35200       22.74600       -2.75100
C          2.23700       21.87300       -1.03700
H          2.22100       22.30000       -0.03400
C          2.06700       20.34300       -0.92800
H          2.90000       19.92800       -0.36000
H          1.15400       20.13300       -0.37000
C          1.98500       19.62400       -2.28300
H          1.26200       20.13600       -2.91600
H          2.95700       19.66900       -2.77600
S          1.46600       17.89200       -2.15900
C          1.18800       17.54700       -3.91600
H          2.11300       17.70100       -4.47100
H          0.86300       16.51400       -4.03800
H          0.41700       18.21400       -4.30500
C          3.57900       22.22200       -1.69600
O          3.66000       22.41200       -2.90500
N          4.65600       22.28500       -0.92500
H          4.58600       22.12500        0.06500
H          5.53600       22.51100       -1.36100
end

basis
 * library aug-cc-pvdz
end

echo

scf
 direct
end

task scf energy
================================================================================

 Output coordinates in angstroms (scale by  1.889725989 to convert to a.u.)

  No.       Tag          Charge          X              Y              Z
 ---- ---------------- ---------- -------------- -------------- --------------
    1 H                    1.0000    -0.77021105     3.74182761    -2.87458902
    2 C                    6.0000     0.16220791     3.30738213    -2.51866486
    3 H                    1.0000     0.99055906     3.97348314    -2.75721214
    4 H                    1.0000     0.32640612     2.34047145    -2.99136529
    5 C                    6.0000     0.09478511     3.12810266    -1.02223610
    6 O                    8.0000     0.91611644     3.66525462    -0.29416150
    7 N                    7.0000    -0.87404474     2.34363712    -0.55392899
    8 H                    1.0000    -1.50048405     1.90526254    -1.21545187
    9 C                    6.0000    -1.08020999     2.04537405     0.87208364
   10 H                    1.0000    -1.00147084     2.97676702     1.43600320
   11 C                    6.0000    -2.50537059     1.48357926     1.03035206
   12 H                    1.0000    -2.74271168     1.38766505     2.09014481
   13 H                    1.0000    -3.22716198     2.16717610     0.58443553
   14 C                    6.0000    -2.63891249     0.12735344     0.36062742
   15 O                    8.0000    -2.82368266     0.02697177    -0.83915110
   16 N                    7.0000    -2.47239392    -0.94547117     1.09546409
   17 H                    1.0000    -2.47637782    -1.83155773     0.61849269
   18 H                    1.0000    -2.18753047    -0.85012669     2.05664890
   19 C                    6.0000    -0.04589596     1.06466498     1.47521315
   20 O                    8.0000    -0.20757253     0.63417125     2.61706946
   21 N                    7.0000     0.93568213     0.61804093     0.68900681
   22 H                    1.0000     1.04598178     1.05305484    -0.21636487
   23 C                    6.0000     1.85785820    -0.47846555     0.99955123
   24 H                    1.0000     2.24048707    -0.34223795     2.01129784
   25 C                    6.0000     1.11036246    -1.82677065     0.92880903
   26 H                    1.0000     1.80674737    -2.63622243     1.14920384
   27 H                    1.0000     0.34022485    -1.83883086     1.70067405
   28 C                    6.0000     0.44391063    -2.10282295    -0.42741628
   29 H                    1.0000    -0.13008374    -1.22781260    -0.72816425
   30 H                    1.0000     1.21384104    -2.27669462    -1.18029993
   31 S                   16.0000    -0.69157109    -3.51521525    -0.40766144
   32 C                    6.0000    -1.46948122    -3.28344870    -2.02769171
   33 H                    1.0000    -0.71077268    -3.32685287    -2.80861644
   34 H                    1.0000    -2.20406524    -4.07070476    -2.19565664
   35 H                    1.0000    -1.96873317    -2.31377700    -2.06138576
   36 C                    6.0000     3.04215161    -0.46526799     0.02265771
   37 O                    8.0000     2.92170910    -0.01540703    -1.11200555
   38 N                    7.0000     4.19407206    -0.98032144     0.43025826
   39 H                    1.0000     4.28764942    -1.35139496     1.35985372
   40 H                    1.0000     4.96863795    -0.97325847    -0.21438877

         Total SCF energy =  -1343.198773792126

 Vector  135  Occ=0.000000D+00  E= 2.132810D-01

 Vector  136  Occ=0.000000D+00  E= 2.197445D-01

 Vector  137  Occ=0.000000D+00  E= 2.213367D-01

 Vector  138  Occ=0.000000D+00  E= 2.232597D-01

 Vector  139  Occ=0.000000D+00  E= 2.269196D-01

 Vector  140  Occ=0.000000D+00  E= 2.307840D-01

 Vector  141  Occ=0.000000D+00  E= 2.349801D-01

 Vector  142  Occ=0.000000D+00  E= 2.376688D-01

 Vector  143  Occ=0.000000D+00  E= 2.413901D-01

 Vector  144  Occ=0.000000D+00  E= 2.431223D-01

 Vector  145  Occ=0.000000D+00  E= 2.475084D-01

 Vector  146  Occ=0.000000D+00  E= 2.489509D-01

 Vector  147  Occ=0.000000D+00  E= 2.520801D-01

 Vector  148  Occ=0.000000D+00  E= 2.547105D-01

 Vector  149  Occ=0.000000D+00  E= 2.620352D-01

 Vector  150  Occ=0.000000D+00  E= 2.638461D-01

 Vector  151  Occ=0.000000D+00  E= 2.726492D-01

 Vector  152  Occ=0.000000D+00  E= 2.738400D-01

 Vector  153  Occ=0.000000D+00  E= 2.753471D-01

 Vector  154  Occ=0.000000D+00  E= 2.794609D-01

 Vector  155  Occ=0.000000D+00  E= 2.893641D-01

 Vector  156  Occ=0.000000D+00  E= 2.960658D-01

 Vector  157  Occ=0.000000D+00  E= 2.978207D-01

 Vector  158  Occ=0.000000D+00  E= 3.042130D-01

 Vector  159  Occ=0.000000D+00  E= 3.064927D-01

 Vector  160  Occ=0.000000D+00  E= 3.119229D-01

 Vector  161  Occ=0.000000D+00  E= 3.149205D-01

 Vector  162  Occ=0.000000D+00  E= 3.156442D-01

 Vector  163  Occ=0.000000D+00  E= 3.189513D-01

 Vector  164  Occ=0.000000D+00  E= 3.250319D-01

 Vector  165  Occ=0.000000D+00  E= 3.289906D-01

 Vector  166  Occ=0.000000D+00  E= 3.310063D-01

 Vector  167  Occ=0.000000D+00  E= 3.380050D-01

 Vector  168  Occ=0.000000D+00  E= 3.422327D-01

 Vector  169  Occ=0.000000D+00  E= 3.477313D-01

 Vector  170  Occ=0.000000D+00  E= 3.482323D-01

 Vector  171  Occ=0.000000D+00  E= 3.532130D-01

 Vector  172  Occ=0.000000D+00  E= 3.544780D-01

 Vector  173  Occ=0.000000D+00  E= 3.596519D-01

 Vector  174  Occ=0.000000D+00  E= 3.638941D-01

 Vector  175  Occ=0.000000D+00  E= 3.656855D-01

 Vector  176  Occ=0.000000D+00  E= 3.674589D-01

 Vector  177  Occ=0.000000D+00  E= 3.701212D-01

 Vector  178  Occ=0.000000D+00  E= 3.735343D-01

 Vector  179  Occ=0.000000D+00  E= 3.799323D-01

 Vector  180  Occ=0.000000D+00  E= 3.800824D-01

 Vector  181  Occ=0.000000D+00  E= 3.855732D-01

 Vector  182  Occ=0.000000D+00  E= 3.889280D-01

 Vector  183  Occ=0.000000D+00  E= 3.919572D-01

 Vector  184  Occ=0.000000D+00  E= 3.957616D-01

 Vector  185  Occ=0.000000D+00  E= 3.993524D-01

 Vector  186  Occ=0.000000D+00  E= 4.012669D-01

 Vector  187  Occ=0.000000D+00  E= 4.081606D-01

 Vector  188  Occ=0.000000D+00  E= 4.103539D-01

 Vector  189  Occ=0.000000D+00  E= 4.122773D-01

 Vector  190  Occ=0.000000D+00  E= 4.134966D-01

 Vector  191  Occ=0.000000D+00  E= 4.156321D-01

 Vector  192  Occ=0.000000D+00  E= 4.180929D-01

 Vector  193  Occ=0.000000D+00  E= 4.188721D-01

 Vector  194  Occ=0.000000D+00  E= 4.247485D-01

 Vector  195  Occ=0.000000D+00  E= 4.304912D-01

 Vector  196  Occ=0.000000D+00  E= 4.338768D-01

 Vector  197  Occ=0.000000D+00  E= 4.370028D-01

 Vector  198  Occ=0.000000D+00  E= 4.396367D-01

 Vector  199  Occ=0.000000D+00  E= 4.441463D-01

 Vector  200  Occ=0.000000D+00  E= 4.486407D-01

 Vector  201  Occ=0.000000D+00  E= 4.498572D-01

 Vector  202  Occ=0.000000D+00  E= 4.515188D-01

 Vector  203  Occ=0.000000D+00  E= 4.534942D-01

 Vector  204  Occ=0.000000D+00  E= 4.575310D-01

 Vector  205  Occ=0.000000D+00  E= 4.594593D-01

 Vector  206  Occ=0.000000D+00  E= 4.670639D-01

 Vector  207  Occ=0.000000D+00  E= 4.694329D-01

 Vector  208  Occ=0.000000D+00  E= 4.722929D-01

 Vector  209  Occ=0.000000D+00  E= 4.814447D-01

 Vector  210  Occ=0.000000D+00  E= 4.838209D-01

 Vector  211  Occ=0.000000D+00  E= 4.861966D-01

 Vector  212  Occ=0.000000D+00  E= 4.895169D-01

 Vector  213  Occ=0.000000D+00  E= 4.951429D-01

 Vector  214  Occ=0.000000D+00  E= 5.000286D-01

       Multipole analysis of the density wrt the origin
       ------------------------------------------------

     L   x y z        total         open         nuclear
     -   - - -        -----         ----         -------
     0   0 0 0     -0.000000      0.000000    162.000000

     1   1 0 0      0.360453      0.000000      0.000000
     1   0 1 0     -0.950256      0.000000     -0.000000
     1   0 0 1      0.126900      0.000000      0.000000

     2   2 0 0    -83.819308      0.000000   2163.041471
     2   1 1 0    -12.942971      0.000000    -18.969768
     2   1 0 1      3.066087      0.000000     11.573027
     2   0 2 0   -102.398170      0.000000   2708.457336
     2   0 1 1     -3.992291      0.000000    -13.135398

 Total times  cpu:     6555.8s     wall:     6578.8s
