============================== echo of input deck ==============================
start ASN_MET_2
geometry
H          3.25300        9.56200        7.31300
C          3.40600        8.64700        7.88200
H          2.44900        8.15800        8.05700
H          3.87300        8.88400        8.83700
C          4.30900        7.71900        7.10700
O          5.40400        7.40400        7.55700
N          3.86400        7.30000        5.92400
H          2.94900        7.62200        5.63200
C          4.55800        6.37400        5.01200
H          4.93900        5.54400        5.60900
C          3.51400        5.80500        4.03000
H          3.99500        5.14000        3.31300
H          2.78300        5.21900        4.58700
C          2.76400        6.89700        3.28700
O          1.73900        7.37600        3.73600
N          3.28000        7.36700        2.17900
H          2.77900        8.10500        1.71900
H          4.21300        7.08000        1.91500
C          5.79300        6.98600        4.29900
O          5.95800        6.85200        3.08600
N          6.65200        7.68200        5.04600
H          6.46900        7.69600        6.04400
C          7.79500        8.48200        4.57300
H          7.48100        9.01700        3.67600
C          8.14400        9.53300        5.64500
H          8.44700        9.01700        6.55600
H          8.98100       10.14200        5.29900
C          6.96700       10.47300        5.95200
H          6.73600       11.03600        5.04700
H          6.08700        9.88900        6.21600
S          7.25700       11.65800        7.29400
C          7.26400       10.54300        8.72500
H          8.11300        9.86300        8.66300
H          7.34500       11.13000        9.64000
H          6.33900        9.96600        8.74800
C          9.02200        7.63800        4.15900
O         10.16100        7.96400        4.47000
N          8.82500        6.51800        3.47700
H          7.88800        6.27400        3.18700
H          9.62600        5.96700        3.21800
end

basis
 * library aug-cc-pvdz
end

echo

scf
 direct
end

task scf energy
================================================================================

 Output coordinates in angstroms (scale by  1.889725989 to convert to a.u.)

  No.       Tag          Charge          X              Y              Z
 ---- ---------------- ---------- -------------- -------------- --------------
    1 H                    1.0000    -3.56296722     0.34636500     0.33448433
    2 C                    6.0000    -3.50345134     0.46226993    -0.74598728
    3 H                    1.0000    -4.06751997     1.34139086    -1.05350633
    4 H                    1.0000    -3.91463016    -0.42158627    -1.23179918
    5 C                    6.0000    -2.05988758     0.62445628    -1.15468921
    6 O                    8.0000    -1.52374974    -0.21019063    -1.87348734
    7 N                    7.0000    -1.41710201     1.68698190    -0.67412600
    8 H                    1.0000    -1.94211199     2.31696764    -0.07943660
    9 C                    6.0000    -0.02084325     2.06117293    -0.95925505
   10 H                    1.0000     0.13856816     1.95353373    -2.03325310
   11 C                    6.0000     0.15135450     3.55249931    -0.60667237
   12 H                    1.0000     1.18364163     3.86113670    -0.77038322
   13 H                    1.0000    -0.48127407     4.14939636    -1.26355972
   14 C                    6.0000    -0.24950340     3.85765637     0.82622857
   15 O                    8.0000    -1.39343156     4.16174764     1.11017197
   16 N                    7.0000     0.64846586     3.72003098     1.76937781
   17 H                    1.0000     0.35357860     3.90350989     2.71098388
   18 H                    1.0000     1.53962297     3.30214727     1.53750242
   19 C                    6.0000     1.03575582     1.14999358    -0.27992554
   20 O                    8.0000     1.99400497     1.63036178     0.32633757
   21 N                    7.0000     0.85094835    -0.16916378    -0.35723050
   22 H                    1.0000     0.06679835    -0.47959946    -0.92152428
   23 C                    6.0000     1.61992116    -1.21614027     0.33753496
   24 H                    1.0000     1.81053192    -0.87231701     1.35482701
   25 C                    6.0000     0.75614475    -2.48933553     0.42945962
   26 H                    1.0000     0.54212143    -2.84114463    -0.57970359
   27 H                    1.0000     1.31052391    -3.26826592     0.95585984
   28 C                    6.0000    -0.56242816    -2.25215393     1.18330865
   29 H                    1.0000    -0.32236086    -1.98020507     2.21178642
   30 H                    1.0000    -1.10000469    -1.41885721     0.73410930
   31 S                   16.0000    -1.69223670    -3.67029017     1.22467621
   32 C                    6.0000    -2.22446748    -3.72074451    -0.50888076
   33 H                    1.0000    -1.37792327    -3.96065026    -1.15141724
   34 H                    1.0000    -2.99044939    -4.48695549    -0.62949357
   35 H                    1.0000    -2.63496778    -2.75258611    -0.79739732
   36 C                    6.0000     3.00679615    -1.49313052    -0.28625602
   37 O                    8.0000     3.42893657    -2.63339099    -0.43431520
   38 N                    7.0000     3.73795864    -0.46607869    -0.69722919
   39 H                    1.0000     3.40438618     0.47430669    -0.53595384
   40 H                    1.0000     4.63589850    -0.65182095    -1.11133888

         Total SCF energy =  -1343.200135737187

 Vector  137  Occ=0.000000D+00  E= 2.146980D-01

 Vector  138  Occ=0.000000D+00  E= 2.208494D-01

 Vector  139  Occ=0.000000D+00  E= 2.235874D-01

 Vector  140  Occ=0.000000D+00  E= 2.260955D-01

 Vector  141  Occ=0.000000D+00  E= 2.269380D-01

 Vector  142  Occ=0.000000D+00  E= 2.307695D-01

 Vector  143  Occ=0.000000D+00  E= 2.337902D-01

 Vector  144  Occ=0.000000D+00  E= 2.373310D-01

 Vector  145  Occ=0.000000D+00  E= 2.405142D-01

 Vector  146  Occ=0.000000D+00  E= 2.441467D-01

 Vector  147  Occ=0.000000D+00  E= 2.475075D-01

 Vector  148  Occ=0.000000D+00  E= 2.493102D-01

 Vector  149  Occ=0.000000D+00  E= 2.552925D-01

 Vector  150  Occ=0.000000D+00  E= 2.661089D-01

 Vector  151  Occ=0.000000D+00  E= 2.678183D-01

 Vector  152  Occ=0.000000D+00  E= 2.702886D-01

 Vector  153  Occ=0.000000D+00  E= 2.725272D-01

 Vector  154  Occ=0.000000D+00  E= 2.801874D-01

 Vector  155  Occ=0.000000D+00  E= 2.831781D-01

 Vector  156  Occ=0.000000D+00  E= 2.881434D-01

 Vector  157  Occ=0.000000D+00  E= 2.945470D-01

 Vector  158  Occ=0.000000D+00  E= 3.042445D-01

 Vector  159  Occ=0.000000D+00  E= 3.059994D-01

 Vector  160  Occ=0.000000D+00  E= 3.074787D-01

 Vector  161  Occ=0.000000D+00  E= 3.123556D-01

 Vector  162  Occ=0.000000D+00  E= 3.145272D-01

 Vector  163  Occ=0.000000D+00  E= 3.182524D-01

 Vector  164  Occ=0.000000D+00  E= 3.206468D-01

 Vector  165  Occ=0.000000D+00  E= 3.230383D-01

 Vector  166  Occ=0.000000D+00  E= 3.279383D-01

 Vector  167  Occ=0.000000D+00  E= 3.339209D-01

 Vector  168  Occ=0.000000D+00  E= 3.371929D-01

 Vector  169  Occ=0.000000D+00  E= 3.391218D-01

 Vector  170  Occ=0.000000D+00  E= 3.409319D-01

 Vector  171  Occ=0.000000D+00  E= 3.456759D-01

 Vector  172  Occ=0.000000D+00  E= 3.465586D-01

 Vector  173  Occ=0.000000D+00  E= 3.487996D-01

 Vector  174  Occ=0.000000D+00  E= 3.552583D-01

 Vector  175  Occ=0.000000D+00  E= 3.574611D-01

 Vector  176  Occ=0.000000D+00  E= 3.615150D-01

 Vector  177  Occ=0.000000D+00  E= 3.633201D-01

 Vector  178  Occ=0.000000D+00  E= 3.699749D-01

 Vector  179  Occ=0.000000D+00  E= 3.745592D-01

 Vector  180  Occ=0.000000D+00  E= 3.766264D-01

 Vector  181  Occ=0.000000D+00  E= 3.802459D-01

 Vector  182  Occ=0.000000D+00  E= 3.827549D-01

 Vector  183  Occ=0.000000D+00  E= 3.852797D-01

 Vector  184  Occ=0.000000D+00  E= 3.900844D-01

 Vector  185  Occ=0.000000D+00  E= 3.937204D-01

 Vector  186  Occ=0.000000D+00  E= 3.955775D-01

 Vector  187  Occ=0.000000D+00  E= 3.985029D-01

 Vector  188  Occ=0.000000D+00  E= 4.046939D-01

 Vector  189  Occ=0.000000D+00  E= 4.082497D-01

 Vector  190  Occ=0.000000D+00  E= 4.109962D-01

 Vector  191  Occ=0.000000D+00  E= 4.139226D-01

 Vector  192  Occ=0.000000D+00  E= 4.157166D-01

 Vector  193  Occ=0.000000D+00  E= 4.172558D-01

 Vector  194  Occ=0.000000D+00  E= 4.194656D-01

 Vector  195  Occ=0.000000D+00  E= 4.245525D-01

 Vector  196  Occ=0.000000D+00  E= 4.264946D-01

 Vector  197  Occ=0.000000D+00  E= 4.328359D-01

 Vector  198  Occ=0.000000D+00  E= 4.389513D-01

 Vector  199  Occ=0.000000D+00  E= 4.399589D-01

 Vector  200  Occ=0.000000D+00  E= 4.461590D-01

 Vector  201  Occ=0.000000D+00  E= 4.477115D-01

 Vector  202  Occ=0.000000D+00  E= 4.485353D-01

 Vector  203  Occ=0.000000D+00  E= 4.510807D-01

 Vector  204  Occ=0.000000D+00  E= 4.562546D-01

 Vector  205  Occ=0.000000D+00  E= 4.597745D-01

 Vector  206  Occ=0.000000D+00  E= 4.628827D-01

 Vector  207  Occ=0.000000D+00  E= 4.682340D-01

 Vector  208  Occ=0.000000D+00  E= 4.740845D-01

 Vector  209  Occ=0.000000D+00  E= 4.758853D-01

 Vector  210  Occ=0.000000D+00  E= 4.778696D-01

 Vector  211  Occ=0.000000D+00  E= 4.823182D-01

 Vector  212  Occ=0.000000D+00  E= 4.849704D-01

 Vector  213  Occ=0.000000D+00  E= 4.904995D-01

 Vector  214  Occ=0.000000D+00  E= 4.929934D-01

 Vector  215  Occ=0.000000D+00  E= 4.984212D-01

 Vector  216  Occ=0.000000D+00  E= 5.016991D-01

       Multipole analysis of the density wrt the origin
       ------------------------------------------------

     L   x y z        total         open         nuclear
     -   - - -        -----         ----         -------
     0   0 0 0      0.000000      0.000000    162.000000

     1   1 0 0     -0.426890      0.000000     -0.000000
     1   0 1 0      1.832105      0.000000      0.000000
     1   0 0 1     -0.335059      0.000000      0.000000

     2   2 0 0    -96.654733      0.000000   2309.372080
     2   1 1 0     14.022658      0.000000     34.396064
     2   1 0 1      4.380366      0.000000     19.868034
     2   0 2 0   -111.203009      0.000000   3799.493401
     2   0 1 1     -2.224346      0.000000      8.540855

 Total times  cpu:     6021.4s     wall:     6039.7s
