============================== echo of input deck ==============================
start ASN_ASN_3
geometry
H         -8.46900       11.53400       -3.19400
C         -7.74000       10.97600       -2.60800
H         -6.92300       10.65700       -3.25500
H         -8.21500       10.10600       -2.16000
C         -7.18800       11.86800       -1.52300
O         -5.99500       12.13700       -1.49000
N         -8.05100       12.29500       -0.60200
H         -9.00600       11.96900       -0.65300
C         -7.71500       13.22400        0.48800
H         -7.35900       14.16000        0.05400
C         -9.00100       13.49800        1.29300
H         -8.82500       14.33100        1.97400
H         -9.81800       13.77200        0.62600
C         -9.40300       12.27100        2.09500
O         -9.88300       11.29000        1.55100
N         -9.10600       12.25300        3.37100
H         -9.10500       11.34300        3.82000
H         -8.60800       13.01800        3.78800
C         -6.61000       12.71400        1.44100
O         -6.03700       13.50200        2.18600
N         -6.35600       11.40200        1.45800
H         -6.88800       10.82600        0.82700
C         -5.39000       10.74500        2.34400
H         -5.37700       11.28500        3.29400
C         -5.86800        9.30600        2.62600
H         -5.71700        8.69900        1.73500
H         -5.26300        8.88000        3.42700
C         -7.32700        9.23700        3.04900
O         -7.75300        9.82000        4.03100
N         -8.16100        8.56500        2.29100
H         -7.84100        8.05900        1.48900
H         -9.13400        8.63200        2.54000
C         -3.94200       10.77900        1.80400
O         -3.03900       10.23100        2.42300
N         -3.68900       11.37100        0.64100
H         -2.73900       11.38400        0.30900
H         -4.43400       11.80600        0.11500
end

basis
 * library aug-cc-pvdz
end

echo

scf
 direct
end

task scf energy
================================================================================

 Output coordinates in angstroms (scale by  1.889725989 to convert to a.u.)

  No.       Tag          Charge          X              Y              Z
 ---- ---------------- ---------- -------------- -------------- --------------
    1 H                    1.0000     2.96002626     3.00931195    -2.22256265
    2 C                    6.0000     2.67733995     1.95915929    -2.28145934
    3 H                    1.0000     3.51296986     1.38068087    -2.67508909
    4 H                    1.0000     1.81312703     1.84576300    -2.93223297
    5 C                    6.0000     2.34065591     1.45755703    -0.89847994
    6 O                    8.0000     2.98900655     0.55108523    -0.39385202
    7 N                    7.0000     1.29219916     2.01808598    -0.29691137
    8 H                    1.0000     0.75962005     2.70827987    -0.80768910
    9 C                    6.0000     0.85519192     1.71099313     1.07376571
   10 H                    1.0000     1.66882489     1.94575211     1.76229864
   11 C                    6.0000    -0.35585437     2.60784797     1.39921196
   12 H                    1.0000    -0.56918269     2.54584233     2.46657896
   13 H                    1.0000    -0.13722978     3.64752367     1.15686568
   14 C                    6.0000    -1.57967865     2.16075077     0.61646345
   15 O                    8.0000    -1.67382687     2.36882664    -0.58209299
   16 N                    7.0000    -2.47436932     1.43858993     1.24473197
   17 H                    1.0000    -3.11467383     0.90883636     0.66243198
   18 H                    1.0000    -2.33353828     1.17503786     2.20276377
   19 C                    6.0000     0.47588506     0.23032492     1.30416098
   20 O                    8.0000     0.39443977    -0.20664533     2.44728025
   21 N                    7.0000     0.19067862    -0.51574786     0.23262858
   22 H                    1.0000     0.26415082    -0.06973761    -0.66661427
   23 C                    6.0000    -0.24790844    -1.91417518     0.27556374
   24 H                    1.0000    -0.84979333    -2.05490830     1.17678389
   25 C                    6.0000    -1.15121569    -2.19282481    -0.94309101
   26 H                    1.0000    -0.53599055    -2.23829052    -1.84006476
   27 H                    1.0000    -1.63031400    -3.16424088    -0.81692590
   28 C                    6.0000    -2.24188087    -1.14891979    -1.12497762
   29 O                    8.0000    -3.07517348    -0.91521583    -0.26666830
   30 N                    7.0000    -2.24456975    -0.44136553    -2.22999516
   31 H                    1.0000    -1.58696298    -0.62076072    -2.96280530
   32 H                    1.0000    -2.91076672     0.31223008    -2.26865056
   33 C                    6.0000     0.92175875    -2.92020876     0.37166318
   34 O                    8.0000     0.70186396    -4.12458214     0.37390727
   35 N                    7.0000     2.17230982    -2.47105483     0.40940937
   36 H                    1.0000     2.91877179    -3.14295190     0.47453886
   37 H                    1.0000     2.36098090    -1.47869792     0.38580888

         Total SCF energy =  -1035.407646996575

 Vector  121  Occ=0.000000D+00  E= 1.968412D-01

 Vector  122  Occ=0.000000D+00  E= 1.986959D-01

 Vector  123  Occ=0.000000D+00  E= 1.990673D-01

 Vector  124  Occ=0.000000D+00  E= 2.010393D-01

 Vector  125  Occ=0.000000D+00  E= 2.053676D-01

 Vector  126  Occ=0.000000D+00  E= 2.080421D-01

 Vector  127  Occ=0.000000D+00  E= 2.148680D-01

 Vector  128  Occ=0.000000D+00  E= 2.212230D-01

 Vector  129  Occ=0.000000D+00  E= 2.226276D-01

 Vector  130  Occ=0.000000D+00  E= 2.263410D-01

 Vector  131  Occ=0.000000D+00  E= 2.278608D-01

 Vector  132  Occ=0.000000D+00  E= 2.351690D-01

 Vector  133  Occ=0.000000D+00  E= 2.393827D-01

 Vector  134  Occ=0.000000D+00  E= 2.432756D-01

 Vector  135  Occ=0.000000D+00  E= 2.456245D-01

 Vector  136  Occ=0.000000D+00  E= 2.522268D-01

 Vector  137  Occ=0.000000D+00  E= 2.571735D-01

 Vector  138  Occ=0.000000D+00  E= 2.606151D-01

 Vector  139  Occ=0.000000D+00  E= 2.630981D-01

 Vector  140  Occ=0.000000D+00  E= 2.680735D-01

 Vector  141  Occ=0.000000D+00  E= 2.683494D-01

 Vector  142  Occ=0.000000D+00  E= 2.743699D-01

 Vector  143  Occ=0.000000D+00  E= 2.876170D-01

 Vector  144  Occ=0.000000D+00  E= 2.914055D-01

 Vector  145  Occ=0.000000D+00  E= 2.949610D-01

 Vector  146  Occ=0.000000D+00  E= 2.975862D-01

 Vector  147  Occ=0.000000D+00  E= 3.037436D-01

 Vector  148  Occ=0.000000D+00  E= 3.045742D-01

 Vector  149  Occ=0.000000D+00  E= 3.127494D-01

 Vector  150  Occ=0.000000D+00  E= 3.148528D-01

 Vector  151  Occ=0.000000D+00  E= 3.187619D-01

 Vector  152  Occ=0.000000D+00  E= 3.208753D-01

 Vector  153  Occ=0.000000D+00  E= 3.253937D-01

 Vector  154  Occ=0.000000D+00  E= 3.291115D-01

 Vector  155  Occ=0.000000D+00  E= 3.368917D-01

 Vector  156  Occ=0.000000D+00  E= 3.391955D-01

 Vector  157  Occ=0.000000D+00  E= 3.437449D-01

 Vector  158  Occ=0.000000D+00  E= 3.500089D-01

 Vector  159  Occ=0.000000D+00  E= 3.550613D-01

 Vector  160  Occ=0.000000D+00  E= 3.581302D-01

 Vector  161  Occ=0.000000D+00  E= 3.607792D-01

 Vector  162  Occ=0.000000D+00  E= 3.637471D-01

 Vector  163  Occ=0.000000D+00  E= 3.649903D-01

 Vector  164  Occ=0.000000D+00  E= 3.683910D-01

 Vector  165  Occ=0.000000D+00  E= 3.729936D-01

 Vector  166  Occ=0.000000D+00  E= 3.745633D-01

 Vector  167  Occ=0.000000D+00  E= 3.784697D-01

 Vector  168  Occ=0.000000D+00  E= 3.811085D-01

 Vector  169  Occ=0.000000D+00  E= 3.861791D-01

 Vector  170  Occ=0.000000D+00  E= 3.915618D-01

 Vector  171  Occ=0.000000D+00  E= 3.968693D-01

 Vector  172  Occ=0.000000D+00  E= 4.002017D-01

 Vector  173  Occ=0.000000D+00  E= 4.009876D-01

 Vector  174  Occ=0.000000D+00  E= 4.045712D-01

 Vector  175  Occ=0.000000D+00  E= 4.056759D-01

 Vector  176  Occ=0.000000D+00  E= 4.089393D-01

 Vector  177  Occ=0.000000D+00  E= 4.142000D-01

 Vector  178  Occ=0.000000D+00  E= 4.181050D-01

 Vector  179  Occ=0.000000D+00  E= 4.194247D-01

 Vector  180  Occ=0.000000D+00  E= 4.244747D-01

 Vector  181  Occ=0.000000D+00  E= 4.265661D-01

 Vector  182  Occ=0.000000D+00  E= 4.289183D-01

 Vector  183  Occ=0.000000D+00  E= 4.302001D-01

 Vector  184  Occ=0.000000D+00  E= 4.355479D-01

 Vector  185  Occ=0.000000D+00  E= 4.375501D-01

 Vector  186  Occ=0.000000D+00  E= 4.401556D-01

 Vector  187  Occ=0.000000D+00  E= 4.451317D-01

 Vector  188  Occ=0.000000D+00  E= 4.507298D-01

 Vector  189  Occ=0.000000D+00  E= 4.523716D-01

 Vector  190  Occ=0.000000D+00  E= 4.531215D-01

 Vector  191  Occ=0.000000D+00  E= 4.610935D-01

 Vector  192  Occ=0.000000D+00  E= 4.682635D-01

 Vector  193  Occ=0.000000D+00  E= 4.719736D-01

 Vector  194  Occ=0.000000D+00  E= 4.744005D-01

 Vector  195  Occ=0.000000D+00  E= 4.806753D-01

 Vector  196  Occ=0.000000D+00  E= 4.822822D-01

 Vector  197  Occ=0.000000D+00  E= 4.877177D-01

 Vector  198  Occ=0.000000D+00  E= 4.921477D-01

 Vector  199  Occ=0.000000D+00  E= 4.963339D-01

 Vector  200  Occ=0.000000D+00  E= 5.001112D-01

       Multipole analysis of the density wrt the origin
       ------------------------------------------------

     L   x y z        total         open         nuclear
     -   - - -        -----         ----         -------
     0   0 0 0      0.000000      0.000000    152.000000

     1   1 0 0      0.387984      0.000000     -0.000000
     1   0 1 0      2.455389      0.000000     -0.000000
     1   0 0 1     -1.803035      0.000000     -0.000000

     2   2 0 0    -93.615037      0.000000   1824.182617
     2   1 1 0      4.343837      0.000000     18.509976
     2   1 0 1     -2.849756      0.000000    -23.115650
     2   0 2 0    -97.796905      0.000000   2110.867292
     2   0 1 1      7.007661      0.000000      4.176669

 Total times  cpu:     5143.4s     wall:     5161.7s
