============================== echo of input deck ==============================
start ASN_GLN_1
geometry
H          4.14000       14.96600       -9.51400
C          4.76100       15.82100       -9.25200
H          4.96300       16.41500      -10.14100
H          5.69900       15.47000       -8.82300
C          4.03900       16.67000       -8.23400
O          4.53200       16.86300       -7.12800
N          2.85400       17.16500       -8.59000
H          2.47500       16.86900       -9.47800
C          2.04000       18.08700       -7.77900
H          2.69800       18.89100       -7.44400
C          0.96000       18.70100       -8.68600
H          0.49800       19.54400       -8.17200
H          1.41300       19.07800       -9.60200
C         -0.11900       17.69800       -9.05500
O          0.00900       16.92400       -9.98800
N         -1.19600       17.65400       -8.30900
H         -1.21700       18.18200       -7.44900
H         -1.91400       17.00700       -8.57100
C          1.42800       17.47500       -6.49100
O          0.53300       18.06900       -5.89200
N          1.87000       16.28000       -6.10200
H          2.56500       15.85000       -6.69900
C          1.42600       15.50100       -4.94200
H          1.04900       16.19600       -4.19000
C          0.26000       14.57100       -5.34800
H         -0.10900       14.08000       -4.44700
H         -0.55800       15.17800       -5.73900
C          0.61000       13.47500       -6.37700
H          1.49200       12.92400       -6.05200
H         -0.22100       12.77100       -6.42800
C          0.85000       14.03600       -7.77400
O          1.97300       14.24100       -8.20100
N         -0.18700       14.38600       -8.50300
H         -1.11800       14.23100       -8.17100
H          0.00800       14.90800       -9.35000
C          2.59000       14.73500       -4.27500
O          2.36900       13.89000       -3.41700
N          3.83900       14.98800       -4.65300
H          4.03500       15.69000       -5.35400
H          4.58300       14.47400       -4.21200
end

basis
 * library aug-cc-pvdz
end

echo

scf
 direct
end

task scf energy
================================================================================

 Output coordinates in angstroms (scale by  1.889725989 to convert to a.u.)

  No.       Tag          Charge          X              Y              Z
 ---- ---------------- ---------- -------------- -------------- --------------
    1 H                    1.0000     2.48389581     0.47500936    -2.55576204
    2 C                    6.0000     3.25197254     0.54906356    -1.78772290
    3 H                    1.0000     3.77445139     1.49899477    -1.88049973
    4 H                    1.0000     3.95876961    -0.27228659    -1.90133555
    5 C                    6.0000     2.60712908     0.46140910    -0.42577481
    6 O                    8.0000     2.91262449    -0.44073594     0.34645629
    7 N                    7.0000     1.69261588     1.38412647    -0.12871545
    8 H                    1.0000     1.42481890     2.02519813    -0.86159532
    9 C                    6.0000     1.02054761     1.52552982     1.17463805
   10 H                    1.0000     1.79564787     1.50340926     1.94297083
   11 C                    6.0000     0.34301037     2.90572172     1.22001020
   12 H                    1.0000     0.03828185     3.12121988     2.24421236
   13 H                    1.0000     1.04829661     3.67720981     0.91378898
   14 C                    6.0000    -0.87672916     2.97720889     0.31804786
   15 O                    8.0000    -0.78789530     3.22856006    -0.87143949
   16 N                    7.0000    -2.04724051     2.71811366     0.84828727
   17 H                    1.0000    -2.08813511     2.35329731     1.78853280
   18 H                    1.0000    -2.85018064     2.78966124     0.25419544
   19 C                    6.0000     0.03009349     0.38758305     1.53810714
   20 O                    8.0000    -0.76699899     0.53684388     2.46278371
   21 N                    7.0000     0.04714325    -0.71246488     0.78689886
   22 H                    1.0000     0.69988717    -0.70941375     0.01343259
   23 C                    6.0000    -0.80581142    -1.89709594     0.92362695
   24 H                    1.0000    -1.11626684    -1.97379115     1.96688784
   25 C                    6.0000    -2.08063454    -1.72923144     0.06575778
   26 H                    1.0000    -2.73486039    -2.57870243     0.26432909
   27 H                    1.0000    -2.61188527    -0.83366965     0.39163468
   28 C                    6.0000    -1.85169405    -1.65196274    -1.45876601
   29 H                    1.0000    -1.23220582    -2.48591820    -1.78725135
   30 H                    1.0000    -2.81713359    -1.73890206    -1.95791132
   31 C                    6.0000    -1.20502462    -0.34052399    -1.88990065
   32 O                    8.0000    -0.00844412    -0.25301426    -2.10442371
   33 N                    7.0000    -1.94796643     0.74292659    -1.94891163
   34 H                    1.0000    -2.93168341     0.69560226    -1.77264108
   35 H                    1.0000    -1.45973057     1.62289702    -2.07218283
   36 C                    6.0000    -0.04444305    -3.20275396     0.60407048
   37 O                    8.0000    -0.64720721    -4.26146525     0.48226827
   38 N                    7.0000     1.27462777    -3.16634593     0.44400602
   39 H                    1.0000     1.78481772    -2.29982152     0.55106985
   40 H                    1.0000     1.75182656    -4.02568146     0.22944419

         Total SCF energy =  -1074.447456880266

 Vector  131  Occ=0.000000D+00  E= 2.065583D-01

 Vector  132  Occ=0.000000D+00  E= 2.104089D-01

 Vector  133  Occ=0.000000D+00  E= 2.127003D-01

 Vector  134  Occ=0.000000D+00  E= 2.151652D-01

 Vector  135  Occ=0.000000D+00  E= 2.193527D-01

 Vector  136  Occ=0.000000D+00  E= 2.219443D-01

 Vector  137  Occ=0.000000D+00  E= 2.295710D-01

 Vector  138  Occ=0.000000D+00  E= 2.304699D-01

 Vector  139  Occ=0.000000D+00  E= 2.352635D-01

 Vector  140  Occ=0.000000D+00  E= 2.424083D-01

 Vector  141  Occ=0.000000D+00  E= 2.434622D-01

 Vector  142  Occ=0.000000D+00  E= 2.459350D-01

 Vector  143  Occ=0.000000D+00  E= 2.482769D-01

 Vector  144  Occ=0.000000D+00  E= 2.521230D-01

 Vector  145  Occ=0.000000D+00  E= 2.561305D-01

 Vector  146  Occ=0.000000D+00  E= 2.599438D-01

 Vector  147  Occ=0.000000D+00  E= 2.645308D-01

 Vector  148  Occ=0.000000D+00  E= 2.657250D-01

 Vector  149  Occ=0.000000D+00  E= 2.773259D-01

 Vector  150  Occ=0.000000D+00  E= 2.815060D-01

 Vector  151  Occ=0.000000D+00  E= 2.884401D-01

 Vector  152  Occ=0.000000D+00  E= 2.946085D-01

 Vector  153  Occ=0.000000D+00  E= 3.016234D-01

 Vector  154  Occ=0.000000D+00  E= 3.035401D-01

 Vector  155  Occ=0.000000D+00  E= 3.051615D-01

 Vector  156  Occ=0.000000D+00  E= 3.094838D-01

 Vector  157  Occ=0.000000D+00  E= 3.128683D-01

 Vector  158  Occ=0.000000D+00  E= 3.166914D-01

 Vector  159  Occ=0.000000D+00  E= 3.240156D-01

 Vector  160  Occ=0.000000D+00  E= 3.257374D-01

 Vector  161  Occ=0.000000D+00  E= 3.272724D-01

 Vector  162  Occ=0.000000D+00  E= 3.301372D-01

 Vector  163  Occ=0.000000D+00  E= 3.334044D-01

 Vector  164  Occ=0.000000D+00  E= 3.414028D-01

 Vector  165  Occ=0.000000D+00  E= 3.438052D-01

 Vector  166  Occ=0.000000D+00  E= 3.472570D-01

 Vector  167  Occ=0.000000D+00  E= 3.533454D-01

 Vector  168  Occ=0.000000D+00  E= 3.561399D-01

 Vector  169  Occ=0.000000D+00  E= 3.602633D-01

 Vector  170  Occ=0.000000D+00  E= 3.624757D-01

 Vector  171  Occ=0.000000D+00  E= 3.662922D-01

 Vector  172  Occ=0.000000D+00  E= 3.676974D-01

 Vector  173  Occ=0.000000D+00  E= 3.706080D-01

 Vector  174  Occ=0.000000D+00  E= 3.749929D-01

 Vector  175  Occ=0.000000D+00  E= 3.758930D-01

 Vector  176  Occ=0.000000D+00  E= 3.799392D-01

 Vector  177  Occ=0.000000D+00  E= 3.842126D-01

 Vector  178  Occ=0.000000D+00  E= 3.874488D-01

 Vector  179  Occ=0.000000D+00  E= 3.897135D-01

 Vector  180  Occ=0.000000D+00  E= 3.962095D-01

 Vector  181  Occ=0.000000D+00  E= 3.967435D-01

 Vector  182  Occ=0.000000D+00  E= 4.010946D-01

 Vector  183  Occ=0.000000D+00  E= 4.041099D-01

 Vector  184  Occ=0.000000D+00  E= 4.056038D-01

 Vector  185  Occ=0.000000D+00  E= 4.103025D-01

 Vector  186  Occ=0.000000D+00  E= 4.145879D-01

 Vector  187  Occ=0.000000D+00  E= 4.175874D-01

 Vector  188  Occ=0.000000D+00  E= 4.198140D-01

 Vector  189  Occ=0.000000D+00  E= 4.231651D-01

 Vector  190  Occ=0.000000D+00  E= 4.240123D-01

 Vector  191  Occ=0.000000D+00  E= 4.282714D-01

 Vector  192  Occ=0.000000D+00  E= 4.304598D-01

 Vector  193  Occ=0.000000D+00  E= 4.354833D-01

 Vector  194  Occ=0.000000D+00  E= 4.371208D-01

 Vector  195  Occ=0.000000D+00  E= 4.451936D-01

 Vector  196  Occ=0.000000D+00  E= 4.491223D-01

 Vector  197  Occ=0.000000D+00  E= 4.521670D-01

 Vector  198  Occ=0.000000D+00  E= 4.538821D-01

 Vector  199  Occ=0.000000D+00  E= 4.572142D-01

 Vector  200  Occ=0.000000D+00  E= 4.618396D-01

 Vector  201  Occ=0.000000D+00  E= 4.669757D-01

 Vector  202  Occ=0.000000D+00  E= 4.696579D-01

 Vector  203  Occ=0.000000D+00  E= 4.727357D-01

 Vector  204  Occ=0.000000D+00  E= 4.739611D-01

 Vector  205  Occ=0.000000D+00  E= 4.795707D-01

 Vector  206  Occ=0.000000D+00  E= 4.859704D-01

 Vector  207  Occ=0.000000D+00  E= 4.881320D-01

 Vector  208  Occ=0.000000D+00  E= 4.900706D-01

 Vector  209  Occ=0.000000D+00  E= 4.960701D-01

 Vector  210  Occ=0.000000D+00  E= 5.018505D-01

       Multipole analysis of the density wrt the origin
       ------------------------------------------------

     L   x y z        total         open         nuclear
     -   - - -        -----         ----         -------
     0   0 0 0     -0.000000      0.000000    160.000000

     1   1 0 0     -0.658342      0.000000     -0.000000
     1   0 1 0      1.950466      0.000000      0.000000
     1   0 0 1     -0.248470      0.000000      0.000000

     2   2 0 0    -80.831349      0.000000   1573.437571
     2   1 1 0     -2.839770      0.000000     10.269362
     2   1 0 1      0.911495      0.000000    -15.464135
     2   0 2 0   -103.986082      0.000000   2523.894058
     2   0 1 1      6.921354      0.000000     16.037735

 Total times  cpu:     6666.9s     wall:     6687.8s
