============================== echo of input deck ==============================
start ASN_ASN_0
geometry
H          2.32400       12.68200       -2.09700
C          2.38400       11.59500       -2.11000
H          3.17700       11.28200       -2.78800
H          1.43200       11.17800       -2.43500
C          2.70200       11.10200       -0.72000
O          2.96100       11.89500        0.17700
N          2.70600        9.78200       -0.53600
H          2.42400        9.19300       -1.31000
C          2.94300        9.12900        0.76200
H          2.21200        9.51700        1.47300
C          2.71900        7.61200        0.60900
H          3.48000        7.19900       -0.05400
H          2.83100        7.13500        1.58200
C          1.36000        7.26500        0.03000
O          1.10500        7.44100       -1.14800
N          0.44200        6.77400        0.82900
H         -0.44200        6.55900        0.40400
H          0.63300        6.62900        1.80300
C          4.33300        9.41100        1.36900
O          4.54500        9.16200        2.55200
N          5.27200        9.93400        0.57700
H          5.02000       10.11600       -0.38600
C          6.58500       10.41500        1.01500
H          6.97800        9.72600        1.76500
C          7.51600       10.39900       -0.20900
H          8.52500       10.67700        0.09400
H          7.55300        9.39500       -0.63000
C          7.02700       11.35300       -1.28300
O          6.14500       11.03600       -2.06300
N          7.53400       12.56200       -1.31500
H          7.16600       13.18700       -2.00900
H          8.17700       12.85400       -0.59800
C          6.55700       11.81900        1.66700
O          7.60900       12.36900        1.97500
N          5.40400       12.45700        1.82300
H          5.41500       13.37400        2.23600
H          4.54100       12.04800        1.49000
end

basis
 * library aug-cc-pvdz
end

echo

scf
 direct
end

task scf energy
================================================================================

 Output coordinates in angstroms (scale by  1.889725989 to convert to a.u.)

  No.       Tag          Charge          X              Y              Z
 ---- ---------------- ---------- -------------- -------------- --------------
    1 H                    1.0000    -3.43831159    -0.29627507     1.91302513
    2 C                    6.0000    -3.03287063    -0.87912455     1.08765121
    3 H                    1.0000    -3.34620735    -0.43850330     0.14204293
    4 H                    1.0000    -3.38767018    -1.90652959     1.15378878
    5 C                    6.0000    -1.52618700    -0.86026092     1.16395067
    6 O                    8.0000    -0.95405238    -0.15909431     1.98952099
    7 N                    7.0000    -0.86970115    -1.61737847     0.28527477
    8 H                    1.0000    -1.41208068    -2.21467847    -0.32675314
    9 C                    6.0000     0.59509090    -1.76039092     0.24902988
   10 H                    1.0000     0.92442886    -2.10592355     1.23013625
   11 C                    6.0000     0.96937109    -2.82863686    -0.79674205
   12 H                    1.0000     0.69935858    -2.47161382    -1.79116992
   13 H                    1.0000     2.04779329    -2.98199207    -0.77972003
   14 C                    6.0000     0.26716736    -4.15495230    -0.57240237
   15 O                    8.0000    -0.91666177    -4.29956294    -0.82003386
   16 N                    7.0000     0.95934723    -5.16008913    -0.08991614
   17 H                    1.0000     0.45505876    -6.01822322     0.04276775
   18 H                    1.0000     1.93345033    -5.05635754     0.12582655
   19 C                    6.0000     1.35369207    -0.44566837    -0.02683585
   20 O                    8.0000     2.55931460    -0.37825915     0.19308305
   21 N                    7.0000     0.66072315     0.59536696    -0.49433292
   22 H                    1.0000    -0.33111819     0.46386979    -0.64584611
   23 C                    6.0000     1.17578270     1.95736370    -0.65820031
   24 H                    1.0000     2.19622222     1.90201773    -1.04201018
   25 C                    6.0000     0.29218979     2.66444957    -1.69958696
   26 H                    1.0000     0.69177369     3.65676727    -1.90649826
   27 H                    1.0000     0.29432139     2.09744690    -2.62971030
   28 C                    6.0000    -1.14014251     2.78475799    -1.21310670
   29 O                    8.0000    -1.92566648     1.85714920    -1.30957967
   30 N                    7.0000    -1.50211143     3.89816347    -0.62229306
   31 H                    1.0000    -2.44268850     3.93855291    -0.27391330
   32 H                    1.0000    -0.81850311     4.61473826    -0.44340134
   33 C                    6.0000     1.23516713     2.77169113     0.65726475
   34 O                    8.0000     1.54809576     3.95710389     0.62660091
   35 N                    7.0000     0.87592700     2.20950803     1.80429818
   36 H                    1.0000     0.90982902     2.76476699     2.64222248
   37 H                    1.0000     0.53124665     1.25887644     1.82513189

         Total SCF energy =  -1035.415684801086

 Vector  122  Occ=0.000000D+00  E= 1.984223D-01

 Vector  123  Occ=0.000000D+00  E= 2.013432D-01

 Vector  124  Occ=0.000000D+00  E= 2.033325D-01

 Vector  125  Occ=0.000000D+00  E= 2.072167D-01

 Vector  126  Occ=0.000000D+00  E= 2.106530D-01

 Vector  127  Occ=0.000000D+00  E= 2.147790D-01

 Vector  128  Occ=0.000000D+00  E= 2.173899D-01

 Vector  129  Occ=0.000000D+00  E= 2.220537D-01

 Vector  130  Occ=0.000000D+00  E= 2.250969D-01

 Vector  131  Occ=0.000000D+00  E= 2.313170D-01

 Vector  132  Occ=0.000000D+00  E= 2.338508D-01

 Vector  133  Occ=0.000000D+00  E= 2.365253D-01

 Vector  134  Occ=0.000000D+00  E= 2.433774D-01

 Vector  135  Occ=0.000000D+00  E= 2.491751D-01

 Vector  136  Occ=0.000000D+00  E= 2.553778D-01

 Vector  137  Occ=0.000000D+00  E= 2.565224D-01

 Vector  138  Occ=0.000000D+00  E= 2.621401D-01

 Vector  139  Occ=0.000000D+00  E= 2.624213D-01

 Vector  140  Occ=0.000000D+00  E= 2.700568D-01

 Vector  141  Occ=0.000000D+00  E= 2.719424D-01

 Vector  142  Occ=0.000000D+00  E= 2.755857D-01

 Vector  143  Occ=0.000000D+00  E= 2.830550D-01

 Vector  144  Occ=0.000000D+00  E= 2.885215D-01

 Vector  145  Occ=0.000000D+00  E= 2.919826D-01

 Vector  146  Occ=0.000000D+00  E= 2.955221D-01

 Vector  147  Occ=0.000000D+00  E= 2.987304D-01

 Vector  148  Occ=0.000000D+00  E= 3.050115D-01

 Vector  149  Occ=0.000000D+00  E= 3.104009D-01

 Vector  150  Occ=0.000000D+00  E= 3.151881D-01

 Vector  151  Occ=0.000000D+00  E= 3.234790D-01

 Vector  152  Occ=0.000000D+00  E= 3.267979D-01

 Vector  153  Occ=0.000000D+00  E= 3.325904D-01

 Vector  154  Occ=0.000000D+00  E= 3.355661D-01

 Vector  155  Occ=0.000000D+00  E= 3.412815D-01

 Vector  156  Occ=0.000000D+00  E= 3.433175D-01

 Vector  157  Occ=0.000000D+00  E= 3.465875D-01

 Vector  158  Occ=0.000000D+00  E= 3.491962D-01

 Vector  159  Occ=0.000000D+00  E= 3.504430D-01

 Vector  160  Occ=0.000000D+00  E= 3.568749D-01

 Vector  161  Occ=0.000000D+00  E= 3.581089D-01

 Vector  162  Occ=0.000000D+00  E= 3.594681D-01

 Vector  163  Occ=0.000000D+00  E= 3.646657D-01

 Vector  164  Occ=0.000000D+00  E= 3.713462D-01

 Vector  165  Occ=0.000000D+00  E= 3.742988D-01

 Vector  166  Occ=0.000000D+00  E= 3.773620D-01

 Vector  167  Occ=0.000000D+00  E= 3.777424D-01

 Vector  168  Occ=0.000000D+00  E= 3.816963D-01

 Vector  169  Occ=0.000000D+00  E= 3.842797D-01

 Vector  170  Occ=0.000000D+00  E= 3.866290D-01

 Vector  171  Occ=0.000000D+00  E= 3.905485D-01

 Vector  172  Occ=0.000000D+00  E= 3.990627D-01

 Vector  173  Occ=0.000000D+00  E= 4.008413D-01

 Vector  174  Occ=0.000000D+00  E= 4.034513D-01

 Vector  175  Occ=0.000000D+00  E= 4.040720D-01

 Vector  176  Occ=0.000000D+00  E= 4.086884D-01

 Vector  177  Occ=0.000000D+00  E= 4.122184D-01

 Vector  178  Occ=0.000000D+00  E= 4.147514D-01

 Vector  179  Occ=0.000000D+00  E= 4.193784D-01

 Vector  180  Occ=0.000000D+00  E= 4.242041D-01

 Vector  181  Occ=0.000000D+00  E= 4.245558D-01

 Vector  182  Occ=0.000000D+00  E= 4.333390D-01

 Vector  183  Occ=0.000000D+00  E= 4.364148D-01

 Vector  184  Occ=0.000000D+00  E= 4.384643D-01

 Vector  185  Occ=0.000000D+00  E= 4.391916D-01

 Vector  186  Occ=0.000000D+00  E= 4.416950D-01

 Vector  187  Occ=0.000000D+00  E= 4.458069D-01

 Vector  188  Occ=0.000000D+00  E= 4.503396D-01

 Vector  189  Occ=0.000000D+00  E= 4.527807D-01

 Vector  190  Occ=0.000000D+00  E= 4.534315D-01

 Vector  191  Occ=0.000000D+00  E= 4.557009D-01

 Vector  192  Occ=0.000000D+00  E= 4.607446D-01

 Vector  193  Occ=0.000000D+00  E= 4.676853D-01

 Vector  194  Occ=0.000000D+00  E= 4.715822D-01

 Vector  195  Occ=0.000000D+00  E= 4.767314D-01

 Vector  196  Occ=0.000000D+00  E= 4.792105D-01

 Vector  197  Occ=0.000000D+00  E= 4.845168D-01

 Vector  198  Occ=0.000000D+00  E= 4.902703D-01

 Vector  199  Occ=0.000000D+00  E= 4.940531D-01

 Vector  200  Occ=0.000000D+00  E= 4.975653D-01

 Vector  201  Occ=0.000000D+00  E= 5.010808D-01

       Multipole analysis of the density wrt the origin
       ------------------------------------------------

     L   x y z        total         open         nuclear
     -   - - -        -----         ----         -------
     0   0 0 0      0.000000      0.000000    152.000000

     1   1 0 0     -0.373936      0.000000      0.000000
     1   0 1 0     -1.367792      0.000000     -0.000000
     1   0 0 1     -0.354712      0.000000      0.000000

     2   2 0 0    -94.552748      0.000000   1158.915697
     2   1 1 0    -17.406909      0.000000    -23.337431
     2   1 0 1     -6.618509      0.000000    -20.710996
     2   0 2 0    -73.894156      0.000000   4093.012809
     2   0 1 1     -5.795623      0.000000    -12.593027

 Total times  cpu:     4718.5s     wall:     4734.7s
