============================== echo of input deck ==============================
start ASN_ASN_4
geometry
H          4.31600       -0.57300       -1.53700
C          5.24300       -1.13400       -1.43900
H          5.06300       -2.18100       -1.67900
H          5.61700       -1.05400       -0.41900
C          6.27000       -0.57900       -2.39500
O          6.71600       -1.26900       -3.30300
N          6.64400        0.68500       -2.20800
H          6.19200        1.19700       -1.46600
C          7.67700        1.37300       -3.00600
H          8.15700        0.65500       -3.67400
C          7.02000        2.46100       -3.88200
H          6.49800        3.17200       -3.24300
H          7.80800        3.00300       -4.40600
C          6.04400        1.99000       -4.95500
O          5.33600        2.78700       -5.53900
N          5.94200        0.71800       -5.27000
H          5.27900        0.49700       -5.98900
H          6.43600        0.00100       -4.75400
C          8.82900        1.93300       -2.14100
O          9.73600        2.58900       -2.64500
N          8.80600        1.66500       -0.83400
H          8.04800        1.08300       -0.50000
C          9.76600        2.11400        0.18100
H          9.99600        3.16400       -0.00600
C          9.06300        2.01300        1.55000
H          9.75900        2.26000        2.35200
H          8.24500        2.73100        1.58600
C          8.47800        0.63000        1.78500
O          7.36600        0.33800        1.37700
N          9.23200       -0.27300        2.35900
H          8.84700       -1.19200        2.47300
H         10.21100       -0.06400        2.50900
C         11.12000        1.36000        0.13800
O         11.61700        0.88500        1.15600
N         11.72100        1.20200       -1.03300
H         11.31100        1.61400       -1.86100
H         12.59500        0.70500       -1.06600
end

basis
 * library aug-cc-pvdz
end

echo

scf
 direct
end

task scf energy
================================================================================

 Output coordinates in angstroms (scale by  1.889725989 to convert to a.u.)

  No.       Tag          Charge          X              Y              Z
 ---- ---------------- ---------- -------------- -------------- --------------
    1 H                    1.0000    -3.42806711     2.23766719     0.56153906
    2 C                    6.0000    -3.22376370     1.59255427    -0.29036671
    3 H                    1.0000    -3.88049486     1.86060169    -1.11684342
    4 H                    1.0000    -3.39249574     0.55226332    -0.01468528
    5 C                    6.0000    -1.78934166     1.77062221    -0.72328151
    6 O                    8.0000    -1.52177961     2.21643061    -1.83194982
    7 N                    7.0000    -0.84952177     1.43690336     0.15871129
    8 H                    1.0000    -1.15659836     1.12288169     1.06651433
    9 C                    6.0000     0.60012195     1.48825815    -0.11171942
   10 H                    1.0000     0.76423651     1.71986093    -1.16603179
   11 C                    6.0000     1.24603685     2.61575472     0.72153589
   12 H                    1.0000     1.06362064     2.43216770     1.77952745
   13 H                    1.0000     2.32439356     2.58723448     0.56148149
   14 C                    6.0000     0.80915358     4.04347693     0.41091023
   15 O                    8.0000     1.11056226     4.95727284     1.15364763
   16 N                    7.0000     0.09685883     4.31886001    -0.65886234
   17 H                    1.0000    -0.14303594     5.28375804    -0.78845122
   18 H                    1.0000    -0.26198817     3.58901655    -1.26130600
   19 C                    6.0000     1.29890538     0.12642348     0.10284302
   20 O                    8.0000     2.51544578     0.01476627    -0.01783481
   21 N                    7.0000     0.53009513    -0.92029520     0.40929498
   22 H                    1.0000    -0.46829740    -0.75780260     0.44994611
   23 C                    6.0000     0.96914337    -2.29251377     0.68800420
   24 H                    1.0000     1.85195806    -2.24633372     1.32743725
   25 C                    6.0000    -0.16131490    -2.98122435     1.47940348
   26 H                    1.0000     0.07858039    -4.03170207     1.64546314
   27 H                    1.0000    -0.25849243    -2.50379408     2.45334438
   28 C                    6.0000    -1.50039658    -2.86585072     0.76969356
   29 O                    8.0000    -2.21291617    -1.88748195     0.92260658
   30 N                    7.0000    -1.83342700    -3.80206730    -0.08235706
   31 H                    1.0000    -2.70188127    -3.69367362    -0.57207124
   32 H                    1.0000    -1.14182301    -4.49646096    -0.33558298
   33 C                    6.0000     1.39182614    -3.08294185    -0.57700321
   34 O                    8.0000     0.95909366    -4.21134861    -0.79700048
   35 N                    7.0000     2.20709988    -2.50107133    -1.44542789
   36 H                    1.0000     2.57126357    -1.57907916    -1.24357830
   37 H                    1.0000     2.47591602    -3.00737985    -2.27208595

         Total SCF energy =  -1035.409721406676

 Vector  123  Occ=0.000000D+00  E= 2.023067D-01

 Vector  124  Occ=0.000000D+00  E= 2.033060D-01

 Vector  125  Occ=0.000000D+00  E= 2.049288D-01

 Vector  126  Occ=0.000000D+00  E= 2.089328D-01

 Vector  127  Occ=0.000000D+00  E= 2.115604D-01

 Vector  128  Occ=0.000000D+00  E= 2.176609D-01

 Vector  129  Occ=0.000000D+00  E= 2.225329D-01

 Vector  130  Occ=0.000000D+00  E= 2.243817D-01

 Vector  131  Occ=0.000000D+00  E= 2.283759D-01

 Vector  132  Occ=0.000000D+00  E= 2.304668D-01

 Vector  133  Occ=0.000000D+00  E= 2.356416D-01

 Vector  134  Occ=0.000000D+00  E= 2.375887D-01

 Vector  135  Occ=0.000000D+00  E= 2.406950D-01

 Vector  136  Occ=0.000000D+00  E= 2.447567D-01

 Vector  137  Occ=0.000000D+00  E= 2.541234D-01

 Vector  138  Occ=0.000000D+00  E= 2.604504D-01

 Vector  139  Occ=0.000000D+00  E= 2.626341D-01

 Vector  140  Occ=0.000000D+00  E= 2.658016D-01

 Vector  141  Occ=0.000000D+00  E= 2.729280D-01

 Vector  142  Occ=0.000000D+00  E= 2.751091D-01

 Vector  143  Occ=0.000000D+00  E= 2.793387D-01

 Vector  144  Occ=0.000000D+00  E= 2.809431D-01

 Vector  145  Occ=0.000000D+00  E= 2.858484D-01

 Vector  146  Occ=0.000000D+00  E= 2.931903D-01

 Vector  147  Occ=0.000000D+00  E= 2.975055D-01

 Vector  148  Occ=0.000000D+00  E= 3.025564D-01

 Vector  149  Occ=0.000000D+00  E= 3.096055D-01

 Vector  150  Occ=0.000000D+00  E= 3.153405D-01

 Vector  151  Occ=0.000000D+00  E= 3.205774D-01

 Vector  152  Occ=0.000000D+00  E= 3.214449D-01

 Vector  153  Occ=0.000000D+00  E= 3.242987D-01

 Vector  154  Occ=0.000000D+00  E= 3.296695D-01

 Vector  155  Occ=0.000000D+00  E= 3.328832D-01

 Vector  156  Occ=0.000000D+00  E= 3.343111D-01

 Vector  157  Occ=0.000000D+00  E= 3.373359D-01

 Vector  158  Occ=0.000000D+00  E= 3.382683D-01

 Vector  159  Occ=0.000000D+00  E= 3.463768D-01

 Vector  160  Occ=0.000000D+00  E= 3.479911D-01

 Vector  161  Occ=0.000000D+00  E= 3.534411D-01

 Vector  162  Occ=0.000000D+00  E= 3.575264D-01

 Vector  163  Occ=0.000000D+00  E= 3.596054D-01

 Vector  164  Occ=0.000000D+00  E= 3.623101D-01

 Vector  165  Occ=0.000000D+00  E= 3.655082D-01

 Vector  166  Occ=0.000000D+00  E= 3.679213D-01

 Vector  167  Occ=0.000000D+00  E= 3.683572D-01

 Vector  168  Occ=0.000000D+00  E= 3.732765D-01

 Vector  169  Occ=0.000000D+00  E= 3.783417D-01

 Vector  170  Occ=0.000000D+00  E= 3.821466D-01

 Vector  171  Occ=0.000000D+00  E= 3.853875D-01

 Vector  172  Occ=0.000000D+00  E= 3.909134D-01

 Vector  173  Occ=0.000000D+00  E= 3.944651D-01

 Vector  174  Occ=0.000000D+00  E= 3.978533D-01

 Vector  175  Occ=0.000000D+00  E= 4.028191D-01

 Vector  176  Occ=0.000000D+00  E= 4.042062D-01

 Vector  177  Occ=0.000000D+00  E= 4.074164D-01

 Vector  178  Occ=0.000000D+00  E= 4.092525D-01

 Vector  179  Occ=0.000000D+00  E= 4.125510D-01

 Vector  180  Occ=0.000000D+00  E= 4.203812D-01

 Vector  181  Occ=0.000000D+00  E= 4.208957D-01

 Vector  182  Occ=0.000000D+00  E= 4.257925D-01

 Vector  183  Occ=0.000000D+00  E= 4.270634D-01

 Vector  184  Occ=0.000000D+00  E= 4.285570D-01

 Vector  185  Occ=0.000000D+00  E= 4.367322D-01

 Vector  186  Occ=0.000000D+00  E= 4.375758D-01

 Vector  187  Occ=0.000000D+00  E= 4.419099D-01

 Vector  188  Occ=0.000000D+00  E= 4.471172D-01

 Vector  189  Occ=0.000000D+00  E= 4.505721D-01

 Vector  190  Occ=0.000000D+00  E= 4.546641D-01

 Vector  191  Occ=0.000000D+00  E= 4.592764D-01

 Vector  192  Occ=0.000000D+00  E= 4.632558D-01

 Vector  193  Occ=0.000000D+00  E= 4.652154D-01

 Vector  194  Occ=0.000000D+00  E= 4.685310D-01

 Vector  195  Occ=0.000000D+00  E= 4.749031D-01

 Vector  196  Occ=0.000000D+00  E= 4.784841D-01

 Vector  197  Occ=0.000000D+00  E= 4.837660D-01

 Vector  198  Occ=0.000000D+00  E= 4.845642D-01

 Vector  199  Occ=0.000000D+00  E= 4.915100D-01

 Vector  200  Occ=0.000000D+00  E= 4.932944D-01

 Vector  201  Occ=0.000000D+00  E= 4.995046D-01

 Vector  202  Occ=0.000000D+00  E= 5.036492D-01

       Multipole analysis of the density wrt the origin
       ------------------------------------------------

     L   x y z        total         open         nuclear
     -   - - -        -----         ----         -------
     0   0 0 0     -0.000000      0.000000    152.000000

     1   1 0 0     -0.890873      0.000000     -0.000000
     1   0 1 0     -2.040658      0.000000      0.000000
     1   0 0 1      0.000326      0.000000     -0.000000

     2   2 0 0    -89.851079      0.000000   1429.172083
     2   1 1 0     -6.612292      0.000000    -17.151895
     2   1 0 1     -3.555964      0.000000     -2.093802
     2   0 2 0   -106.205059      0.000000   4356.285760
     2   0 1 1     -6.931013      0.000000    -14.561852

 Total times  cpu:     5105.5s     wall:     5131.0s
