============================== echo of input deck ==============================
start ASN_CYS_5
geometry
H         12.37900        8.43200        4.39500
C         12.91900        8.09200        3.51400
H         12.55300        7.11100        3.21600
H         13.98500        8.03400        3.72800
C         12.69000        9.06400        2.38000
O         12.16300        8.68600        1.34300
N         13.08700       10.31800        2.58300
H         13.54400       10.54500        3.45400
C         13.00500       11.39500        1.59300
H         13.20400       10.97900        0.60200
C         11.57400       11.97700        1.60700
H         10.85200       11.17300        1.46800
H         11.39100       12.44300        2.57500
C         11.33100       13.00000        0.50800
O         11.94500       12.98100       -0.54600
N         10.46300       13.95600        0.73000
H         10.38500       14.65600        0.01500
H         10.00700       14.03600        1.61800
C         14.07000       12.47300        1.88100
O         14.61200       12.53700        2.98500
N         14.35000       13.34100        0.90800
H         13.80600       13.27100        0.05500
C         15.13400       14.55500        1.11900
H         16.07800       14.28200        1.59300
C         15.43900       15.17300       -0.25300
H         15.96900       14.44100       -0.86500
H         14.50500       15.43800       -0.75300
S         16.47600       16.65300       -0.07700
H         15.51100       17.48400        0.33800
C         14.39400       15.53500        2.05300
O         13.19200       15.75100        1.92700
N         15.09700       16.17000        2.98100
H         16.08300       15.99400        3.08000
H         14.61100       16.80300        3.59500
end

basis
 * library aug-cc-pvdz
end

echo

scf
 direct
end

task scf energy
================================================================================

 Output coordinates in angstroms (scale by  1.889725989 to convert to a.u.)

  No.       Tag          Charge          X              Y              Z
 ---- ---------------- ---------- -------------- -------------- --------------
    1 H                    1.0000     1.72835041    -5.24874255     1.31364764
    2 C                    6.0000     1.85348925    -5.15621008     0.23701446
    3 H                    1.0000     1.68820512    -6.12298795    -0.23536538
    4 H                    1.0000     2.85769062    -4.80439262     0.00610306
    5 C                    6.0000     0.84324506    -4.17016835    -0.30178921
    6 O                    8.0000     0.01855374    -4.52630434    -1.13186956
    7 N                    7.0000     0.91069863    -2.92967828     0.17567115
    8 H                    1.0000     1.64122598    -2.70495080     0.83509995
    9 C                    6.0000     0.06124215    -1.81675488    -0.25627582
   10 H                    1.0000    -0.12760516    -1.91277223    -1.32858891
   11 C                    6.0000    -1.28733200    -1.89911476     0.49288745
   12 H                    1.0000    -1.72306334    -2.88767080     0.35176283
   13 H                    1.0000    -1.11050393    -1.74758589     1.55751876
   14 C                    6.0000    -2.30709804    -0.88033503     0.00755861
   15 O                    8.0000    -2.29507880    -0.43852146    -1.12951188
   16 N                    7.0000    -3.19586424    -0.43569436     0.86139308
   17 H                    1.0000    -3.80265986     0.29111086     0.52843324
   18 H                    1.0000    -3.17341060    -0.72551746     1.81971370
   19 C                    6.0000     0.77452620    -0.47042162    -0.01572307
   20 O                    8.0000     1.73362643    -0.39985531     0.75357735
   21 N                    7.0000     0.29372472     0.60451194    -0.64174286
   22 H                    1.0000    -0.54544049     0.47951725    -1.19728140
   23 C                    6.0000     0.69788568     1.96929768    -0.31465446
   24 H                    1.0000     1.78652500     2.02925511    -0.35478599
   25 C                    6.0000     0.11890362     2.90929182    -1.38167077
   26 H                    1.0000     0.47650689     2.59769703    -2.36467463
   27 H                    1.0000    -0.97155588     2.85139682    -1.37039116
   28 S                   16.0000     0.64028019     4.62260163    -1.08253709
   29 H                    1.0000    -0.20106536     4.87864110    -0.07229333
   30 C                    6.0000     0.24860669     2.35172172     1.11091779
   31 O                    8.0000    -0.87178467     2.06663363     1.52417797
   32 N                    7.0000     1.09379618     3.03050922     1.87480276
   33 H                    1.0000     2.01043203     3.26625721     1.53249498
   34 H                    1.0000     0.80205333     3.27211982     2.80775047

         Total SCF energy =  -1265.127312462184

 Vector  112  Occ=0.000000D+00  E= 1.834619D-01

 Vector  113  Occ=0.000000D+00  E= 1.858739D-01

 Vector  114  Occ=0.000000D+00  E= 1.885662D-01

 Vector  115  Occ=0.000000D+00  E= 1.906699D-01

 Vector  116  Occ=0.000000D+00  E= 1.935784D-01

 Vector  117  Occ=0.000000D+00  E= 1.979603D-01

 Vector  118  Occ=0.000000D+00  E= 2.006810D-01

 Vector  119  Occ=0.000000D+00  E= 2.073751D-01

 Vector  120  Occ=0.000000D+00  E= 2.105013D-01

 Vector  121  Occ=0.000000D+00  E= 2.127547D-01

 Vector  122  Occ=0.000000D+00  E= 2.145711D-01

 Vector  123  Occ=0.000000D+00  E= 2.167404D-01

 Vector  124  Occ=0.000000D+00  E= 2.226538D-01

 Vector  125  Occ=0.000000D+00  E= 2.266320D-01

 Vector  126  Occ=0.000000D+00  E= 2.318847D-01

 Vector  127  Occ=0.000000D+00  E= 2.364135D-01

 Vector  128  Occ=0.000000D+00  E= 2.379484D-01

 Vector  129  Occ=0.000000D+00  E= 2.465304D-01

 Vector  130  Occ=0.000000D+00  E= 2.489623D-01

 Vector  131  Occ=0.000000D+00  E= 2.534422D-01

 Vector  132  Occ=0.000000D+00  E= 2.613055D-01

 Vector  133  Occ=0.000000D+00  E= 2.626582D-01

 Vector  134  Occ=0.000000D+00  E= 2.640864D-01

 Vector  135  Occ=0.000000D+00  E= 2.674250D-01

 Vector  136  Occ=0.000000D+00  E= 2.808575D-01

 Vector  137  Occ=0.000000D+00  E= 2.841135D-01

 Vector  138  Occ=0.000000D+00  E= 2.877558D-01

 Vector  139  Occ=0.000000D+00  E= 2.947903D-01

 Vector  140  Occ=0.000000D+00  E= 2.996261D-01

 Vector  141  Occ=0.000000D+00  E= 3.007338D-01

 Vector  142  Occ=0.000000D+00  E= 3.044286D-01

 Vector  143  Occ=0.000000D+00  E= 3.090296D-01

 Vector  144  Occ=0.000000D+00  E= 3.169189D-01

 Vector  145  Occ=0.000000D+00  E= 3.217010D-01

 Vector  146  Occ=0.000000D+00  E= 3.266149D-01

 Vector  147  Occ=0.000000D+00  E= 3.297677D-01

 Vector  148  Occ=0.000000D+00  E= 3.351118D-01

 Vector  149  Occ=0.000000D+00  E= 3.363456D-01

 Vector  150  Occ=0.000000D+00  E= 3.394500D-01

 Vector  151  Occ=0.000000D+00  E= 3.453528D-01

 Vector  152  Occ=0.000000D+00  E= 3.494983D-01

 Vector  153  Occ=0.000000D+00  E= 3.533444D-01

 Vector  154  Occ=0.000000D+00  E= 3.572772D-01

 Vector  155  Occ=0.000000D+00  E= 3.619581D-01

 Vector  156  Occ=0.000000D+00  E= 3.654559D-01

 Vector  157  Occ=0.000000D+00  E= 3.724033D-01

 Vector  158  Occ=0.000000D+00  E= 3.741202D-01

 Vector  159  Occ=0.000000D+00  E= 3.768241D-01

 Vector  160  Occ=0.000000D+00  E= 3.792909D-01

 Vector  161  Occ=0.000000D+00  E= 3.806800D-01

 Vector  162  Occ=0.000000D+00  E= 3.841492D-01

 Vector  163  Occ=0.000000D+00  E= 3.898046D-01

 Vector  164  Occ=0.000000D+00  E= 3.917312D-01

 Vector  165  Occ=0.000000D+00  E= 3.973697D-01

 Vector  166  Occ=0.000000D+00  E= 4.027814D-01

 Vector  167  Occ=0.000000D+00  E= 4.080467D-01

 Vector  168  Occ=0.000000D+00  E= 4.122104D-01

 Vector  169  Occ=0.000000D+00  E= 4.142293D-01

 Vector  170  Occ=0.000000D+00  E= 4.156183D-01

 Vector  171  Occ=0.000000D+00  E= 4.241831D-01

 Vector  172  Occ=0.000000D+00  E= 4.276636D-01

 Vector  173  Occ=0.000000D+00  E= 4.290640D-01

 Vector  174  Occ=0.000000D+00  E= 4.315139D-01

 Vector  175  Occ=0.000000D+00  E= 4.360642D-01

 Vector  176  Occ=0.000000D+00  E= 4.410813D-01

 Vector  177  Occ=0.000000D+00  E= 4.439642D-01

 Vector  178  Occ=0.000000D+00  E= 4.467611D-01

 Vector  179  Occ=0.000000D+00  E= 4.506563D-01

 Vector  180  Occ=0.000000D+00  E= 4.521803D-01

 Vector  181  Occ=0.000000D+00  E= 4.567705D-01

 Vector  182  Occ=0.000000D+00  E= 4.638403D-01

 Vector  183  Occ=0.000000D+00  E= 4.694172D-01

 Vector  184  Occ=0.000000D+00  E= 4.728983D-01

 Vector  185  Occ=0.000000D+00  E= 4.738831D-01

 Vector  186  Occ=0.000000D+00  E= 4.805791D-01

 Vector  187  Occ=0.000000D+00  E= 4.850005D-01

 Vector  188  Occ=0.000000D+00  E= 4.863895D-01

 Vector  189  Occ=0.000000D+00  E= 4.906051D-01

 Vector  190  Occ=0.000000D+00  E= 4.934192D-01

 Vector  191  Occ=0.000000D+00  E= 5.013212D-01

       Multipole analysis of the density wrt the origin
       ------------------------------------------------

     L   x y z        total         open         nuclear
     -   - - -        -----         ----         -------
     0   0 0 0     -0.000000      0.000000    146.000000

     1   1 0 0      0.409288      0.000000      0.000000
     1   0 1 0      0.920335      0.000000     -0.000000
     1   0 0 1      1.647928      0.000000      0.000000

     2   2 0 0    -80.482239      0.000000   1048.801704
     2   1 1 0     -2.232601      0.000000    -33.912609
     2   1 0 1     -5.232761      0.000000     -1.955272
     2   0 2 0    -88.579506      0.000000   4517.604631
     2   0 1 1     -5.935210      0.000000    -13.830558

 Total times  cpu:     4236.8s     wall:     4256.7s
