============================== echo of input deck ==============================
start ASN_CYS_1
geometry
H         -1.63000        1.44900        3.20500
C         -0.81000        2.06300        3.57400
H         -0.31700        1.55200        4.40000
H         -1.19500        3.02300        3.91600
C          0.18700        2.28700        2.46300
O          1.35000        1.92600        2.59600
N         -0.25900        2.91900        1.37800
H         -1.23000        3.21000        1.37800
C          0.50100        3.18800        0.14300
H          0.99100        2.25800       -0.15100
C         -0.51000        3.55500       -0.96100
H          0.01100        3.73100       -1.90200
H         -1.19900        2.72500       -1.11200
C         -1.32300        4.78200       -0.59500
O         -2.35900        4.68700        0.03700
N         -0.84800        5.96200       -0.91100
H          0.08500        6.02600       -1.29500
H         -1.39400        6.76200       -0.64900
C          1.63700        4.23700        0.28100
O          1.89000        5.01900       -0.63500
N          2.29300        4.28200        1.43800
H          2.02800        3.59300        2.13000
C          3.38800        5.19100        1.78700
H          3.97400        5.40000        0.89000
C          2.79200        6.51600        2.29000
H          3.60500        7.16600        2.62300
H          2.26700        7.01300        1.47300
S          1.64200        6.24400        3.67400
H          0.62500        5.77500        2.94400
C          4.37300        4.59000        2.81500
O          5.39200        5.19900        3.11500
N          4.12500        3.40100        3.35700
H          3.29900        2.87600        3.11300
H          4.78800        3.04200        4.02400
end

basis
 * library aug-cc-pvdz
end

echo

scf
 direct
end

task scf energy
================================================================================

 Output coordinates in angstroms (scale by  1.889725989 to convert to a.u.)

  No.       Tag          Charge          X              Y              Z
 ---- ---------------- ---------- -------------- -------------- --------------
    1 H                    1.0000    -3.82197136     2.00929983     0.96810370
    2 C                    6.0000    -3.35446647     1.03850712     1.12481262
    3 H                    1.0000    -4.11961639     0.26327531     1.12750521
    4 H                    1.0000    -2.82698009     1.03442231     2.07798125
    5 C                    6.0000    -2.37701292     0.76726008     0.00699528
    6 O                    8.0000    -2.51452350    -0.21875935    -0.70675224
    7 N                    7.0000    -1.36425449     1.62349366    -0.12242434
    8 H                    1.0000    -1.31760785     2.38906706     0.54033011
    9 C                    6.0000    -0.33016976     1.60908236    -1.17392189
   10 H                    1.0000    -0.83806904     1.49567060    -2.13340722
   11 C                    6.0000     0.36375567     2.98533795    -1.17017383
   12 H                    1.0000     1.11643456     3.02702521    -1.95734260
   13 H                    1.0000    -0.37205143     3.76282634    -1.37147388
   14 C                    6.0000     1.01268538     3.28532984     0.16749171
   15 O                    8.0000     0.39053911     3.82532206     1.06364316
   16 N                    7.0000     2.24398927     2.88316325     0.36757613
   17 H                    1.0000     2.68716797     2.30132648    -0.33034908
   18 H                    1.0000     2.65139061     3.07956199     1.26323884
   19 C                    6.0000     0.68059936     0.43373840    -1.09113696
   20 O                    8.0000     1.86382606     0.59542233    -1.38849516
   21 N                    7.0000     0.22588873    -0.73621201    -0.64902354
   22 H                    1.0000    -0.76315297    -0.78226189    -0.44049074
   23 C                    6.0000     1.00043095    -1.96914377    -0.48449207
   24 H                    1.0000     1.76939606    -2.00994966    -1.25825789
   25 C                    6.0000     1.69906423    -1.93747255     0.88472613
   26 H                    1.0000     2.21404013    -2.88858016     1.04141733
   27 H                    1.0000     2.44157268    -1.13831028     0.89672016
   28 S                   16.0000     0.50539009    -1.67723358     2.23356183
   29 H                    1.0000     0.31170496    -0.37138831     2.02283878
   30 C                    6.0000     0.15028039    -3.24851244    -0.65381377
   31 O                    8.0000     0.69008685    -4.34751893    -0.64783874
   32 N                    7.0000    -1.16488465    -3.15457777    -0.82847400
   33 H                    1.0000    -1.62771602    -2.25863768    -0.85117829
   34 H                    1.0000    -1.68638445    -4.00917053    -0.93358427

         Total SCF energy =  -1265.123849378477

 Vector  113  Occ=0.000000D+00  E= 1.815114D-01

 Vector  114  Occ=0.000000D+00  E= 1.831970D-01

 Vector  115  Occ=0.000000D+00  E= 1.888958D-01

 Vector  116  Occ=0.000000D+00  E= 1.921892D-01

 Vector  117  Occ=0.000000D+00  E= 1.941907D-01

 Vector  118  Occ=0.000000D+00  E= 1.951313D-01

 Vector  119  Occ=0.000000D+00  E= 1.984136D-01

 Vector  120  Occ=0.000000D+00  E= 2.045221D-01

 Vector  121  Occ=0.000000D+00  E= 2.100463D-01

 Vector  122  Occ=0.000000D+00  E= 2.121683D-01

 Vector  123  Occ=0.000000D+00  E= 2.219174D-01

 Vector  124  Occ=0.000000D+00  E= 2.234884D-01

 Vector  125  Occ=0.000000D+00  E= 2.256359D-01

 Vector  126  Occ=0.000000D+00  E= 2.336195D-01

 Vector  127  Occ=0.000000D+00  E= 2.351006D-01

 Vector  128  Occ=0.000000D+00  E= 2.372704D-01

 Vector  129  Occ=0.000000D+00  E= 2.404207D-01

 Vector  130  Occ=0.000000D+00  E= 2.427734D-01

 Vector  131  Occ=0.000000D+00  E= 2.449145D-01

 Vector  132  Occ=0.000000D+00  E= 2.487840D-01

 Vector  133  Occ=0.000000D+00  E= 2.572102D-01

 Vector  134  Occ=0.000000D+00  E= 2.626890D-01

 Vector  135  Occ=0.000000D+00  E= 2.647639D-01

 Vector  136  Occ=0.000000D+00  E= 2.694334D-01

 Vector  137  Occ=0.000000D+00  E= 2.797414D-01

 Vector  138  Occ=0.000000D+00  E= 2.848081D-01

 Vector  139  Occ=0.000000D+00  E= 2.921300D-01

 Vector  140  Occ=0.000000D+00  E= 2.944786D-01

 Vector  141  Occ=0.000000D+00  E= 2.962428D-01

 Vector  142  Occ=0.000000D+00  E= 3.033515D-01

 Vector  143  Occ=0.000000D+00  E= 3.115574D-01

 Vector  144  Occ=0.000000D+00  E= 3.135079D-01

 Vector  145  Occ=0.000000D+00  E= 3.161252D-01

 Vector  146  Occ=0.000000D+00  E= 3.174463D-01

 Vector  147  Occ=0.000000D+00  E= 3.233822D-01

 Vector  148  Occ=0.000000D+00  E= 3.288343D-01

 Vector  149  Occ=0.000000D+00  E= 3.310842D-01

 Vector  150  Occ=0.000000D+00  E= 3.361537D-01

 Vector  151  Occ=0.000000D+00  E= 3.401193D-01

 Vector  152  Occ=0.000000D+00  E= 3.423148D-01

 Vector  153  Occ=0.000000D+00  E= 3.487333D-01

 Vector  154  Occ=0.000000D+00  E= 3.514116D-01

 Vector  155  Occ=0.000000D+00  E= 3.572023D-01

 Vector  156  Occ=0.000000D+00  E= 3.641297D-01

 Vector  157  Occ=0.000000D+00  E= 3.665227D-01

 Vector  158  Occ=0.000000D+00  E= 3.705638D-01

 Vector  159  Occ=0.000000D+00  E= 3.733480D-01

 Vector  160  Occ=0.000000D+00  E= 3.734512D-01

 Vector  161  Occ=0.000000D+00  E= 3.778104D-01

 Vector  162  Occ=0.000000D+00  E= 3.859638D-01

 Vector  163  Occ=0.000000D+00  E= 3.876042D-01

 Vector  164  Occ=0.000000D+00  E= 3.888727D-01

 Vector  165  Occ=0.000000D+00  E= 3.924368D-01

 Vector  166  Occ=0.000000D+00  E= 3.961284D-01

 Vector  167  Occ=0.000000D+00  E= 3.998941D-01

 Vector  168  Occ=0.000000D+00  E= 4.026289D-01

 Vector  169  Occ=0.000000D+00  E= 4.059060D-01

 Vector  170  Occ=0.000000D+00  E= 4.115534D-01

 Vector  171  Occ=0.000000D+00  E= 4.150155D-01

 Vector  172  Occ=0.000000D+00  E= 4.208324D-01

 Vector  173  Occ=0.000000D+00  E= 4.257120D-01

 Vector  174  Occ=0.000000D+00  E= 4.274071D-01

 Vector  175  Occ=0.000000D+00  E= 4.307118D-01

 Vector  176  Occ=0.000000D+00  E= 4.315894D-01

 Vector  177  Occ=0.000000D+00  E= 4.362733D-01

 Vector  178  Occ=0.000000D+00  E= 4.425629D-01

 Vector  179  Occ=0.000000D+00  E= 4.486932D-01

 Vector  180  Occ=0.000000D+00  E= 4.537539D-01

 Vector  181  Occ=0.000000D+00  E= 4.584693D-01

 Vector  182  Occ=0.000000D+00  E= 4.599907D-01

 Vector  183  Occ=0.000000D+00  E= 4.658086D-01

 Vector  184  Occ=0.000000D+00  E= 4.675100D-01

 Vector  185  Occ=0.000000D+00  E= 4.721363D-01

 Vector  186  Occ=0.000000D+00  E= 4.762584D-01

 Vector  187  Occ=0.000000D+00  E= 4.789633D-01

 Vector  188  Occ=0.000000D+00  E= 4.816370D-01

 Vector  189  Occ=0.000000D+00  E= 4.925503D-01

 Vector  190  Occ=0.000000D+00  E= 4.933194D-01

 Vector  191  Occ=0.000000D+00  E= 4.957275D-01

 Vector  192  Occ=0.000000D+00  E= 5.033529D-01

       Multipole analysis of the density wrt the origin
       ------------------------------------------------

     L   x y z        total         open         nuclear
     -   - - -        -----         ----         -------
     0   0 0 0      0.000000      0.000000    146.000000

     1   1 0 0     -0.836942      0.000000      0.000000
     1   0 1 0      1.706968      0.000000      0.000000
     1   0 0 1     -0.255303      0.000000     -0.000000

     2   2 0 0    -77.954330      0.000000   1280.912283
     2   1 1 0      4.194268      0.000000     -3.026167
     2   1 0 1      0.773746      0.000000    -10.895631
     2   0 2 0   -104.051927      0.000000   2883.369250
     2   0 1 1     -5.324652      0.000000     -3.146033

 Total times  cpu:     4131.3s     wall:     4144.5s
