============================== echo of input deck ==============================
start ASP_ARG_1
geometry
H          5.91300       17.19800        7.85900
C          5.56900       17.04000        8.87900
H          4.87700       17.83300        9.15800
H          6.42100       17.03700        9.55700
C          4.85800       15.71300        8.95900
O          3.68200       15.65600        9.29300
N          5.58600       14.63200        8.70600
H          6.58200       14.74100        8.56500
C          5.08000       13.24800        8.70500
H          4.17500       13.22100        8.09700
C          6.12400       12.33200        8.03800
H          5.67300       11.35000        7.88500
H          6.37500       12.73600        7.05600
C          7.41400       12.16700        8.85000
O          7.99800       11.05900        8.79500
O          7.75600       13.06000        9.65500
C          4.69000       12.71400       10.10700
O          4.20900       11.58500       10.24500
N          4.89200       13.51300       11.16300
H          5.36200       14.38500       10.96500
C          4.35100       13.29600       12.51800
H          4.19400       12.23200       12.67300
C          5.35000       13.81100       13.57300
H          5.47700       14.88600       13.43000
H          4.92100       13.66400       14.56600
C          6.74600       13.15800       13.55800
H          7.22100       13.31900       12.58900
H          7.35200       13.67600       14.30300
C          6.76500       11.65800       13.91000
H          7.78200       11.37800       14.19300
H          6.12400       11.48800       14.77700
N          6.32400       10.80000       12.79400
H          5.36900       10.48400       12.79700
C          7.01000       10.50300       11.70600
N          6.43100        9.90900       10.71100
H          6.98400        9.91000        9.85400
H          5.43000       10.00800       10.61400
N          8.25500       10.83100       11.53700
H          8.53800       10.90200       10.55400
H          8.68800       11.45200       12.18400
C          2.95800       13.90600       12.73300
O          2.36300       13.69300       13.78000
N          2.41200       14.65300       11.78500
H          2.90700       14.83000       10.92000
H          1.49600       15.03400       11.94500
end

basis
 * library aug-cc-pvdz
end

echo

scf
 direct
end

task scf energy
================================================================================

 Output coordinates in angstroms (scale by  1.889725989 to convert to a.u.)

  No.       Tag          Charge          X              Y              Z
 ---- ---------------- ---------- -------------- -------------- --------------
    1 H                    1.0000     3.75812761     3.05251834     1.83245724
    2 C                    6.0000     2.67183793     3.10987876     1.85206655
    3 H                    1.0000     2.36294796     4.14754523     1.96777860
    4 H                    1.0000     2.28811824     2.51520118     2.67954150
    5 C                    6.0000     2.12680348     2.57409397     0.55255814
    6 O                    8.0000     1.45686640     3.28714749    -0.18264251
    7 N                    7.0000     2.36537892     1.29476308     0.28997823
    8 H                    1.0000     2.81202346     0.72965481     1.00056904
    9 C                    6.0000     1.94527389     0.58540753    -0.93142239
   10 H                    1.0000     2.24202226     1.18890308    -1.78999769
   11 C                    6.0000     2.69652891    -0.75709938    -1.01611065
   12 H                    1.0000     2.51378298    -1.19261506    -2.00001309
   13 H                    1.0000     3.76823649    -0.57009082    -0.93237506
   14 C                    6.0000     2.28465841    -1.76782547     0.06067367
   15 O                    8.0000     2.29034220    -2.98255179    -0.24941127
   16 O                    8.0000     1.80804967    -1.35942914     1.14164293
   17 C                    6.0000     0.41428695     0.37140226    -1.04605543
   18 O                    8.0000    -0.07833266    -0.16920445    -2.04110132
   19 N                    7.0000    -0.35676946     0.78877214    -0.03332872
   20 H                    1.0000     0.13821334     1.14609016     0.77153391
   21 C                    6.0000    -1.82597443     0.91479162    -0.07008261
   22 H                    1.0000    -2.22628839     0.20953199    -0.79335821
   23 C                    6.0000    -2.41716712     0.59512541     1.31720097
   24 H                    1.0000    -2.03474988     1.32777945     2.03076814
   25 H                    1.0000    -3.50107966     0.71789144     1.27523549
   26 C                    6.0000    -2.12030543    -0.81227660     1.87086397
   27 H                    1.0000    -1.04253787    -0.95587771     1.96198368
   28 H                    1.0000    -2.53674497    -0.85655411     2.87843660
   29 C                    6.0000    -2.73870762    -1.97083580     1.06489603
   30 H                    1.0000    -2.75886038    -2.86313076     1.69432559
   31 H                    1.0000    -3.77174518    -1.72004769     0.81708818
   32 N                    7.0000    -1.99352799    -2.27275935    -0.17189437
   33 H                    1.0000    -2.33972013    -1.88365922    -1.03250003
   34 C                    6.0000    -0.83233652    -2.89383318    -0.26382179
   35 N                    7.0000    -0.18907807    -2.91232811    -1.38808978
   36 H                    1.0000     0.77547372    -3.23301588    -1.30407674
   37 H                    1.0000    -0.37373526    -2.17581289    -2.05491664
   38 N                    7.0000    -0.24312542    -3.45625165     0.74745747
   39 H                    1.0000     0.77349613    -3.54083695     0.64379961
   40 H                    1.0000    -0.59862555    -3.30464418     1.66526672
   41 C                    6.0000    -2.31744608     2.27813408    -0.57853808
   42 O                    8.0000    -3.51372432     2.45760015    -0.75829708
   43 N                    7.0000    -1.44486862     3.24497991    -0.82070893
   44 H                    1.0000    -0.45532790     3.09523100    -0.66917209
   45 H                    1.0000    -1.78941690     4.12542922    -1.16116818

         Total SCF energy =  -1168.508623951502

 Vector  153  Occ=0.000000D+00  E= 2.382631D-01

 Vector  154  Occ=0.000000D+00  E= 2.475977D-01

 Vector  155  Occ=0.000000D+00  E= 2.484017D-01

 Vector  156  Occ=0.000000D+00  E= 2.524276D-01

 Vector  157  Occ=0.000000D+00  E= 2.569634D-01

 Vector  158  Occ=0.000000D+00  E= 2.579198D-01

 Vector  159  Occ=0.000000D+00  E= 2.648535D-01

 Vector  160  Occ=0.000000D+00  E= 2.651984D-01

 Vector  161  Occ=0.000000D+00  E= 2.707370D-01

 Vector  162  Occ=0.000000D+00  E= 2.748070D-01

 Vector  163  Occ=0.000000D+00  E= 2.771417D-01

 Vector  164  Occ=0.000000D+00  E= 2.801497D-01

 Vector  165  Occ=0.000000D+00  E= 2.844901D-01

 Vector  166  Occ=0.000000D+00  E= 2.875048D-01

 Vector  167  Occ=0.000000D+00  E= 2.907361D-01

 Vector  168  Occ=0.000000D+00  E= 2.951961D-01

 Vector  169  Occ=0.000000D+00  E= 2.976024D-01

 Vector  170  Occ=0.000000D+00  E= 3.066298D-01

 Vector  171  Occ=0.000000D+00  E= 3.085462D-01

 Vector  172  Occ=0.000000D+00  E= 3.123386D-01

 Vector  173  Occ=0.000000D+00  E= 3.174677D-01

 Vector  174  Occ=0.000000D+00  E= 3.212710D-01

 Vector  175  Occ=0.000000D+00  E= 3.232644D-01

 Vector  176  Occ=0.000000D+00  E= 3.274050D-01

 Vector  177  Occ=0.000000D+00  E= 3.333888D-01

 Vector  178  Occ=0.000000D+00  E= 3.338331D-01

 Vector  179  Occ=0.000000D+00  E= 3.363415D-01

 Vector  180  Occ=0.000000D+00  E= 3.390649D-01

 Vector  181  Occ=0.000000D+00  E= 3.425249D-01

 Vector  182  Occ=0.000000D+00  E= 3.462579D-01

 Vector  183  Occ=0.000000D+00  E= 3.474200D-01

 Vector  184  Occ=0.000000D+00  E= 3.539218D-01

 Vector  185  Occ=0.000000D+00  E= 3.555465D-01

 Vector  186  Occ=0.000000D+00  E= 3.620008D-01

 Vector  187  Occ=0.000000D+00  E= 3.646277D-01

 Vector  188  Occ=0.000000D+00  E= 3.679567D-01

 Vector  189  Occ=0.000000D+00  E= 3.711010D-01

 Vector  190  Occ=0.000000D+00  E= 3.724024D-01

 Vector  191  Occ=0.000000D+00  E= 3.741419D-01

 Vector  192  Occ=0.000000D+00  E= 3.777320D-01

 Vector  193  Occ=0.000000D+00  E= 3.791475D-01

 Vector  194  Occ=0.000000D+00  E= 3.867574D-01

 Vector  195  Occ=0.000000D+00  E= 3.907952D-01

 Vector  196  Occ=0.000000D+00  E= 3.917765D-01

 Vector  197  Occ=0.000000D+00  E= 3.930482D-01

 Vector  198  Occ=0.000000D+00  E= 3.948705D-01

 Vector  199  Occ=0.000000D+00  E= 3.972432D-01

 Vector  200  Occ=0.000000D+00  E= 3.989837D-01

 Vector  201  Occ=0.000000D+00  E= 4.022973D-01

 Vector  202  Occ=0.000000D+00  E= 4.068393D-01

 Vector  203  Occ=0.000000D+00  E= 4.099053D-01

 Vector  204  Occ=0.000000D+00  E= 4.130994D-01

 Vector  205  Occ=0.000000D+00  E= 4.141605D-01

 Vector  206  Occ=0.000000D+00  E= 4.155471D-01

 Vector  207  Occ=0.000000D+00  E= 4.246256D-01

 Vector  208  Occ=0.000000D+00  E= 4.248559D-01

 Vector  209  Occ=0.000000D+00  E= 4.304258D-01

 Vector  210  Occ=0.000000D+00  E= 4.314723D-01

 Vector  211  Occ=0.000000D+00  E= 4.324600D-01

 Vector  212  Occ=0.000000D+00  E= 4.355118D-01

 Vector  213  Occ=0.000000D+00  E= 4.370710D-01

 Vector  214  Occ=0.000000D+00  E= 4.416378D-01

 Vector  215  Occ=0.000000D+00  E= 4.458066D-01

 Vector  216  Occ=0.000000D+00  E= 4.499728D-01

 Vector  217  Occ=0.000000D+00  E= 4.540891D-01

 Vector  218  Occ=0.000000D+00  E= 4.554759D-01

 Vector  219  Occ=0.000000D+00  E= 4.580714D-01

 Vector  220  Occ=0.000000D+00  E= 4.591592D-01

 Vector  221  Occ=0.000000D+00  E= 4.656004D-01

 Vector  222  Occ=0.000000D+00  E= 4.682784D-01

 Vector  223  Occ=0.000000D+00  E= 4.703106D-01

 Vector  224  Occ=0.000000D+00  E= 4.725521D-01

 Vector  225  Occ=0.000000D+00  E= 4.750167D-01

 Vector  226  Occ=0.000000D+00  E= 4.795970D-01

 Vector  227  Occ=0.000000D+00  E= 4.828831D-01

 Vector  228  Occ=0.000000D+00  E= 4.886673D-01

 Vector  229  Occ=0.000000D+00  E= 4.931262D-01

 Vector  230  Occ=0.000000D+00  E= 4.939753D-01

 Vector  231  Occ=0.000000D+00  E= 4.980736D-01

 Vector  232  Occ=0.000000D+00  E= 5.067593D-01

       Multipole analysis of the density wrt the origin
       ------------------------------------------------

     L   x y z        total         open         nuclear
     -   - - -        -----         ----         -------
     0   0 0 0      0.000000      0.000000    176.000000

     1   1 0 0     -0.284090      0.000000      0.000000
     1   0 1 0     -0.225292      0.000000     -0.000000
     1   0 0 1      1.477513      0.000000     -0.000000

     2   2 0 0   -106.515502      0.000000   2567.056437
     2   1 1 0     23.244633      0.000000     56.181238
     2   1 0 1     -5.844627      0.000000    -21.059008
     2   0 2 0   -111.011413      0.000000   3036.520554
     2   0 1 1      4.128064      0.000000     20.761596

 Total times  cpu:    10331.1s     wall:    10380.8s
