============================== echo of input deck ==============================
start ASP_ARG_2
geometry
H         -5.25500        6.49800        8.95700
C         -5.47000        7.31900        8.27700
H         -5.13400        8.26000        8.70700
H         -6.54000        7.36600        8.08300
C         -4.74800        7.08600        6.97200
O         -5.38000        6.98200        5.93000
N         -3.42400        6.99400        7.04100
H         -2.98300        7.04900        7.94600
C         -2.53500        6.77700        5.89400
H         -3.07300        6.20600        5.13400
C         -2.15200        8.14000        5.28100
H         -3.06500        8.68000        5.02400
H         -1.61700        8.72200        6.03300
C         -1.28600        8.04200        4.01900
O         -0.51900        8.98900        3.75000
O         -1.26700        6.98200        3.35100
C         -1.29700        5.95800        6.31600
O         -0.89200        5.96400        7.48100
N         -0.67200        5.26200        5.36000
H         -1.01300        5.44400        4.41700
C          0.51900        4.40200        5.50300
H          0.38900        3.83700        6.42700
C          0.54800        3.37100        4.35200
H          1.47400        2.79600        4.40500
H         -0.26300        2.66500        4.53700
C          0.36200        3.88700        2.90800
H          0.32300        3.00700        2.26500
H         -0.60100        4.39000        2.80600
C          1.47700        4.79100        2.36200
H          2.44000        4.39800        2.68600
H          1.44700        4.73300        1.27200
N          1.31100        6.21100        2.73500
H          0.35400        6.57500        2.76300
C          2.26500        7.10100        2.93300
N          3.51300        6.75300        3.06900
H          3.67000        5.78500        3.30700
H          4.21100        7.44300        3.24600
N          1.99200        8.36400        3.03200
H          2.68900        9.05500        3.19600
H          1.00100        8.63900        3.10100
C          1.83900        5.16700        5.71800
O          2.88100        4.83300        5.15800
N          1.81800        6.23400        6.49900
H          2.66800        6.74200        6.66300
H          0.95400        6.46900        6.97100
end

basis
 * library aug-cc-pvdz
end

echo

scf
 direct
end

task scf energy
================================================================================

 Output coordinates in angstroms (scale by  1.889725989 to convert to a.u.)

  No.       Tag          Charge          X              Y              Z
 ---- ---------------- ---------- -------------- -------------- --------------
    1 H                    1.0000    -1.52197791     6.03542343     0.61882829
    2 C                    6.0000    -0.44301784     6.06188545     0.48537064
    3 H                    1.0000     0.05280230     6.13122088     1.45109937
    4 H                    1.0000    -0.16882177     6.91704198    -0.12966500
    5 C                    6.0000     0.00325563     4.79856873    -0.20994860
    6 O                    8.0000     0.57150038     4.86010298    -1.29129749
    7 N                    7.0000    -0.26894793     3.65689656     0.41350219
    8 H                    1.0000    -0.77867061     3.69139690     1.28271074
    9 C                    6.0000     0.08284918     2.32212567    -0.08413670
   10 H                    1.0000     0.09890854     2.34586058    -1.17604501
   11 C                    6.0000     1.49935458     1.95339840     0.40348983
   12 H                    1.0000     2.19559896     2.73094114     0.08428917
   13 H                    1.0000     1.49714914     1.93062540     1.49432874
   14 C                    6.0000     2.01568995     0.60788804    -0.12110876
   15 O                    8.0000     2.85293555    -0.01475881     0.56357342
   16 O                    8.0000     1.51159969     0.09941923    -1.14947518
   17 C                    6.0000    -0.97347565     1.28559812     0.35321614
   18 O                    8.0000    -1.66354567     1.46054803     1.36043106
   19 N                    7.0000    -1.09046494     0.18237649    -0.39390671
   20 H                    1.0000    -0.37649920     0.08564866    -1.11470532
   21 C                    6.0000    -2.02006882    -0.94678202    -0.19549383
   22 H                    1.0000    -2.98250559    -0.51565807     0.08334055
   23 C                    6.0000    -2.23339485    -1.67756074    -1.54050590
   24 H                    1.0000    -2.84677526    -2.56510356    -1.37636506
   25 H                    1.0000    -2.82036967    -1.01147928    -2.17468099
   26 C                    6.0000    -0.98492116    -2.07692882    -2.35770023
   27 H                    1.0000    -1.34778295    -2.49126263    -3.29899127
   28 H                    1.0000    -0.39919365    -1.19211982    -2.61229461
   29 C                    6.0000    -0.07089967    -3.13668354    -1.72521176
   30 H                    1.0000    -0.68929514    -3.90129941    -1.25644358
   31 H                    1.0000     0.48993650    -3.61450901    -2.53113335
   32 N                    7.0000     0.91084101    -2.56912023    -0.77803589
   33 H                    1.0000     1.30927155    -1.65550119    -1.01400698
   34 C                    6.0000     1.41961900    -3.15378088     0.29001695
   35 N                    7.0000     0.90856820    -4.24444843     0.78637910
   36 H                    1.0000    -0.03914364    -4.44669019     0.50485194
   37 H                    1.0000     1.29494553    -4.65073129     1.61116986
   38 N                    7.0000     2.43698235    -2.64489416     0.91090754
   39 H                    1.0000     2.83151791    -3.05601274     1.72669502
   40 H                    1.0000     2.74345330    -1.69890402     0.63953102
   41 C                    6.0000    -1.66735041    -1.86576433     0.98979568
   42 O                    8.0000    -1.75595624    -3.08921836     0.91087007
   43 N                    7.0000    -1.21997879    -1.30311959     2.09983196
   44 H                    1.0000    -0.99436653    -1.88056712     2.88920732
   45 H                    1.0000    -1.18529041    -0.29268404     2.14801611

         Total SCF energy =  -1168.511623303389

 Vector  152  Occ=0.000000D+00  E= 2.402145D-01

 Vector  153  Occ=0.000000D+00  E= 2.414305D-01

 Vector  154  Occ=0.000000D+00  E= 2.461869D-01

 Vector  155  Occ=0.000000D+00  E= 2.470719D-01

 Vector  156  Occ=0.000000D+00  E= 2.508396D-01

 Vector  157  Occ=0.000000D+00  E= 2.562213D-01

 Vector  158  Occ=0.000000D+00  E= 2.585492D-01

 Vector  159  Occ=0.000000D+00  E= 2.623121D-01

 Vector  160  Occ=0.000000D+00  E= 2.640160D-01

 Vector  161  Occ=0.000000D+00  E= 2.683567D-01

 Vector  162  Occ=0.000000D+00  E= 2.702044D-01

 Vector  163  Occ=0.000000D+00  E= 2.735069D-01

 Vector  164  Occ=0.000000D+00  E= 2.783728D-01

 Vector  165  Occ=0.000000D+00  E= 2.794245D-01

 Vector  166  Occ=0.000000D+00  E= 2.888320D-01

 Vector  167  Occ=0.000000D+00  E= 2.923751D-01

 Vector  168  Occ=0.000000D+00  E= 2.961808D-01

 Vector  169  Occ=0.000000D+00  E= 2.983775D-01

 Vector  170  Occ=0.000000D+00  E= 3.033728D-01

 Vector  171  Occ=0.000000D+00  E= 3.102370D-01

 Vector  172  Occ=0.000000D+00  E= 3.163077D-01

 Vector  173  Occ=0.000000D+00  E= 3.202968D-01

 Vector  174  Occ=0.000000D+00  E= 3.232001D-01

 Vector  175  Occ=0.000000D+00  E= 3.254748D-01

 Vector  176  Occ=0.000000D+00  E= 3.321635D-01

 Vector  177  Occ=0.000000D+00  E= 3.329582D-01

 Vector  178  Occ=0.000000D+00  E= 3.333816D-01

 Vector  179  Occ=0.000000D+00  E= 3.357561D-01

 Vector  180  Occ=0.000000D+00  E= 3.392708D-01

 Vector  181  Occ=0.000000D+00  E= 3.416482D-01

 Vector  182  Occ=0.000000D+00  E= 3.460704D-01

 Vector  183  Occ=0.000000D+00  E= 3.484010D-01

 Vector  184  Occ=0.000000D+00  E= 3.532744D-01

 Vector  185  Occ=0.000000D+00  E= 3.567252D-01

 Vector  186  Occ=0.000000D+00  E= 3.614977D-01

 Vector  187  Occ=0.000000D+00  E= 3.652822D-01

 Vector  188  Occ=0.000000D+00  E= 3.666703D-01

 Vector  189  Occ=0.000000D+00  E= 3.716173D-01

 Vector  190  Occ=0.000000D+00  E= 3.750456D-01

 Vector  191  Occ=0.000000D+00  E= 3.774551D-01

 Vector  192  Occ=0.000000D+00  E= 3.804167D-01

 Vector  193  Occ=0.000000D+00  E= 3.832381D-01

 Vector  194  Occ=0.000000D+00  E= 3.863771D-01

 Vector  195  Occ=0.000000D+00  E= 3.872072D-01

 Vector  196  Occ=0.000000D+00  E= 3.901936D-01

 Vector  197  Occ=0.000000D+00  E= 3.936045D-01

 Vector  198  Occ=0.000000D+00  E= 3.958666D-01

 Vector  199  Occ=0.000000D+00  E= 3.976641D-01

 Vector  200  Occ=0.000000D+00  E= 3.999387D-01

 Vector  201  Occ=0.000000D+00  E= 4.052716D-01

 Vector  202  Occ=0.000000D+00  E= 4.065246D-01

 Vector  203  Occ=0.000000D+00  E= 4.085642D-01

 Vector  204  Occ=0.000000D+00  E= 4.131988D-01

 Vector  205  Occ=0.000000D+00  E= 4.146239D-01

 Vector  206  Occ=0.000000D+00  E= 4.189489D-01

 Vector  207  Occ=0.000000D+00  E= 4.237940D-01

 Vector  208  Occ=0.000000D+00  E= 4.257321D-01

 Vector  209  Occ=0.000000D+00  E= 4.270826D-01

 Vector  210  Occ=0.000000D+00  E= 4.316959D-01

 Vector  211  Occ=0.000000D+00  E= 4.324251D-01

 Vector  212  Occ=0.000000D+00  E= 4.398654D-01

 Vector  213  Occ=0.000000D+00  E= 4.434175D-01

 Vector  214  Occ=0.000000D+00  E= 4.461122D-01

 Vector  215  Occ=0.000000D+00  E= 4.479056D-01

 Vector  216  Occ=0.000000D+00  E= 4.497489D-01

 Vector  217  Occ=0.000000D+00  E= 4.511614D-01

 Vector  218  Occ=0.000000D+00  E= 4.518643D-01

 Vector  219  Occ=0.000000D+00  E= 4.557918D-01

 Vector  220  Occ=0.000000D+00  E= 4.594953D-01

 Vector  221  Occ=0.000000D+00  E= 4.619484D-01

 Vector  222  Occ=0.000000D+00  E= 4.691905D-01

 Vector  223  Occ=0.000000D+00  E= 4.700785D-01

 Vector  224  Occ=0.000000D+00  E= 4.742311D-01

 Vector  225  Occ=0.000000D+00  E= 4.756072D-01

 Vector  226  Occ=0.000000D+00  E= 4.832688D-01

 Vector  227  Occ=0.000000D+00  E= 4.870722D-01

 Vector  228  Occ=0.000000D+00  E= 4.889916D-01

 Vector  229  Occ=0.000000D+00  E= 4.961061D-01

 Vector  230  Occ=0.000000D+00  E= 4.972953D-01

 Vector  231  Occ=0.000000D+00  E= 5.003385D-01

       Multipole analysis of the density wrt the origin
       ------------------------------------------------

     L   x y z        total         open         nuclear
     -   - - -        -----         ----         -------
     0   0 0 0     -0.000000      0.000000    176.000000

     1   1 0 0     -1.008234      0.000000      0.000000
     1   0 1 0     -2.903142      0.000000      0.000000
     1   0 0 1      1.274726      0.000000      0.000000

     2   2 0 0   -111.481892      0.000000   1421.885182
     2   1 1 0    -12.155956      0.000000    -11.310705
     2   1 0 1     10.232169      0.000000     31.471350
     2   0 2 0    -90.155498      0.000000   5282.261624
     2   0 1 1      6.897136      0.000000     48.390475

 Total times  cpu:     8371.1s     wall:     8400.5s
