============================== echo of input deck ==============================
start ASP_ARG_4
geometry
H          5.44100        6.70100       -4.43600
C          5.56700        5.75200       -3.92500
H          6.14000        5.07100       -4.55200
H          4.59200        5.31500       -3.71900
C          6.31000        5.96500       -2.62500
O          7.49700        5.66800       -2.54300
N          5.68700        6.49200       -1.57600
H          6.19600        6.45200       -0.69800
C          4.40800        7.21800       -1.51100
H          3.61200        6.58100       -1.89800
C          4.08100        7.53200       -0.03300
H          3.29000        8.28200        0.01600
H          3.70800        6.62100        0.43800
C          5.31300        8.00900        0.74800
O          5.57200        9.22800        0.74200
O          6.15100        7.16600        1.13600
C          4.44100        8.48600       -2.39300
O          3.82700        8.49500       -3.46000
N          5.23700        9.51100       -2.04500
H          5.61300        9.51400       -1.09700
C          5.63800       10.58900       -2.97000
H          4.74500       10.87800       -3.52600
C          6.10200       11.87100       -2.23600
H          6.66100       12.48500       -2.94400
H          5.19900       12.43600       -1.99900
C          6.91000       11.80100       -0.92400
H          7.17600       12.82900       -0.67500
H          6.26100       11.45900       -0.12000
C          8.21600       10.98900       -0.91700
H          8.70800       11.05700       -1.88500
H          8.88400       11.45400       -0.18900
N          8.01000        9.59500       -0.48300
H          7.38800        9.46100        0.31800
C          8.47000        8.48400       -1.02400
N          8.35500        7.35400       -0.40000
H          7.76300        7.32800        0.43800
H          8.48600        6.49800       -0.91500
N          9.00500        8.43900       -2.20900
H          8.91100        9.25900       -2.79800
H          9.20600        7.54200       -2.60900
C          6.61600       10.08800       -4.04200
O          7.82500       10.28500       -3.96800
N          6.10800        9.39200       -5.04300
H          5.12300        9.16400       -5.02200
H          6.72100        9.04700       -5.76100
end

basis
 * library aug-cc-pvdz
end

echo

scf
 direct
end

task scf energy
================================================================================

 Output coordinates in angstroms (scale by  1.889725989 to convert to a.u.)

  No.       Tag          Charge          X              Y              Z
 ---- ---------------- ---------- -------------- -------------- --------------
    1 H                    1.0000    -3.06930090     1.31796724     0.40286008
    2 C                    6.0000    -2.73116617     2.28963829     0.74799525
    3 H                    1.0000    -3.28368615     2.57408075     1.64188179
    4 H                    1.0000    -2.89918825     3.03276589    -0.02889597
    5 C                    6.0000    -1.25686649     2.23057349     1.08021477
    6 O                    8.0000    -0.89521122     2.17606770     2.25074310
    7 N                    7.0000    -0.35112520     2.21697898     0.10774015
    8 H                    1.0000     0.61215919     2.34340407     0.40382270
    9 C                    6.0000    -0.52056735     1.94561046    -1.32919774
   10 H                    1.0000    -1.23189010     2.65763616    -1.74895165
   11 C                    6.0000     0.83310895     2.15710772    -2.04532509
   12 H                    1.0000     0.79306101     1.71593163    -3.04249198
   13 H                    1.0000     0.99771852     3.22975221    -2.16034032
   14 C                    6.0000     2.00957149     1.57092096    -1.25309092
   15 O                    8.0000     2.30691255     0.37642910    -1.44765578
   16 O                    8.0000     2.45619028     2.20263826    -0.27079671
   17 C                    6.0000    -1.10179952     0.53379988    -1.56541173
   18 O                    8.0000    -2.27856448     0.41510418    -1.90702784
   19 N                    7.0000    -0.35431696    -0.54430430    -1.27505646
   20 H                    1.0000     0.64466289    -0.39908527    -1.13000577
   21 C                    6.0000    -0.90607940    -1.90196433    -1.09947893
   22 H                    1.0000    -1.63024198    -2.05580809    -1.90074459
   23 C                    6.0000     0.15706118    -3.01265095    -1.28300909
   24 H                    1.0000    -0.23259401    -3.93251997    -0.84397515
   25 H                    1.0000     0.22680755    -3.20016112    -2.35575248
   26 C                    6.0000     1.60817355    -2.82829756    -0.79372928
   27 H                    1.0000     2.11124742    -3.78034006    -0.96714426
   28 H                    1.0000     2.11324566    -2.10497092    -1.43113163
   29 C                    6.0000     1.83686261    -2.46644934     0.68336116
   30 H                    1.0000     1.08129362    -2.93733250     1.30873830
   31 H                    1.0000     2.79956851    -2.89029468     0.97659397
   32 N                    7.0000     1.92397232    -1.01051464     0.89944921
   33 H                    1.0000     2.47299379    -0.48649058     0.21358100
   34 C                    6.0000     1.33916675    -0.27548295     1.82483177
   35 N                    7.0000     1.68039909     0.96366106     1.99091493
   36 H                    1.0000     2.29304594     1.39001711     1.28645176
   37 H                    1.0000     1.07353098     1.56889567     2.52056024
   38 N                    7.0000     0.37086256    -0.71466006     2.57448866
   39 H                    1.0000    -0.05557848    -1.59883133     2.32042919
   40 H                    1.0000    -0.11558948    -0.06108547     3.15862449
   41 C                    6.0000    -1.72676209    -2.02282003     0.19224195
   42 O                    8.0000    -1.27362744    -2.53852442     1.20943611
   43 N                    7.0000    -2.94340576    -1.50883456     0.18340388
   44 H                    1.0000    -3.24888138    -1.00467645    -0.63827686
   45 H                    1.0000    -3.50690530    -1.56877202     1.01358083

         Total SCF energy =  -1168.495320321881

 Vector  150  Occ=0.000000D+00  E= 2.311363D-01

 Vector  151  Occ=0.000000D+00  E= 2.362169D-01

 Vector  152  Occ=0.000000D+00  E= 2.367989D-01

 Vector  153  Occ=0.000000D+00  E= 2.389382D-01

 Vector  154  Occ=0.000000D+00  E= 2.443927D-01

 Vector  155  Occ=0.000000D+00  E= 2.501490D-01

 Vector  156  Occ=0.000000D+00  E= 2.535602D-01

 Vector  157  Occ=0.000000D+00  E= 2.566218D-01

 Vector  158  Occ=0.000000D+00  E= 2.596604D-01

 Vector  159  Occ=0.000000D+00  E= 2.680608D-01

 Vector  160  Occ=0.000000D+00  E= 2.745811D-01

 Vector  161  Occ=0.000000D+00  E= 2.764620D-01

 Vector  162  Occ=0.000000D+00  E= 2.836957D-01

 Vector  163  Occ=0.000000D+00  E= 2.851433D-01

 Vector  164  Occ=0.000000D+00  E= 2.875876D-01

 Vector  165  Occ=0.000000D+00  E= 2.918214D-01

 Vector  166  Occ=0.000000D+00  E= 2.998475D-01

 Vector  167  Occ=0.000000D+00  E= 3.032856D-01

 Vector  168  Occ=0.000000D+00  E= 3.069096D-01

 Vector  169  Occ=0.000000D+00  E= 3.089077D-01

 Vector  170  Occ=0.000000D+00  E= 3.115928D-01

 Vector  171  Occ=0.000000D+00  E= 3.180818D-01

 Vector  172  Occ=0.000000D+00  E= 3.228125D-01

 Vector  173  Occ=0.000000D+00  E= 3.267426D-01

 Vector  174  Occ=0.000000D+00  E= 3.281529D-01

 Vector  175  Occ=0.000000D+00  E= 3.330931D-01

 Vector  176  Occ=0.000000D+00  E= 3.354264D-01

 Vector  177  Occ=0.000000D+00  E= 3.372713D-01

 Vector  178  Occ=0.000000D+00  E= 3.447637D-01

 Vector  179  Occ=0.000000D+00  E= 3.451281D-01

 Vector  180  Occ=0.000000D+00  E= 3.485102D-01

 Vector  181  Occ=0.000000D+00  E= 3.514914D-01

 Vector  182  Occ=0.000000D+00  E= 3.531939D-01

 Vector  183  Occ=0.000000D+00  E= 3.535402D-01

 Vector  184  Occ=0.000000D+00  E= 3.572373D-01

 Vector  185  Occ=0.000000D+00  E= 3.608963D-01

 Vector  186  Occ=0.000000D+00  E= 3.652903D-01

 Vector  187  Occ=0.000000D+00  E= 3.689527D-01

 Vector  188  Occ=0.000000D+00  E= 3.704126D-01

 Vector  189  Occ=0.000000D+00  E= 3.755277D-01

 Vector  190  Occ=0.000000D+00  E= 3.784017D-01

 Vector  191  Occ=0.000000D+00  E= 3.818573D-01

 Vector  192  Occ=0.000000D+00  E= 3.843512D-01

 Vector  193  Occ=0.000000D+00  E= 3.858454D-01

 Vector  194  Occ=0.000000D+00  E= 3.898314D-01

 Vector  195  Occ=0.000000D+00  E= 3.919610D-01

 Vector  196  Occ=0.000000D+00  E= 3.953688D-01

 Vector  197  Occ=0.000000D+00  E= 3.957605D-01

 Vector  198  Occ=0.000000D+00  E= 3.981846D-01

 Vector  199  Occ=0.000000D+00  E= 4.036170D-01

 Vector  200  Occ=0.000000D+00  E= 4.068382D-01

 Vector  201  Occ=0.000000D+00  E= 4.081812D-01

 Vector  202  Occ=0.000000D+00  E= 4.104033D-01

 Vector  203  Occ=0.000000D+00  E= 4.126627D-01

 Vector  204  Occ=0.000000D+00  E= 4.163633D-01

 Vector  205  Occ=0.000000D+00  E= 4.182620D-01

 Vector  206  Occ=0.000000D+00  E= 4.239542D-01

 Vector  207  Occ=0.000000D+00  E= 4.249192D-01

 Vector  208  Occ=0.000000D+00  E= 4.283229D-01

 Vector  209  Occ=0.000000D+00  E= 4.345742D-01

 Vector  210  Occ=0.000000D+00  E= 4.361817D-01

 Vector  211  Occ=0.000000D+00  E= 4.430521D-01

 Vector  212  Occ=0.000000D+00  E= 4.451719D-01

 Vector  213  Occ=0.000000D+00  E= 4.506086D-01

 Vector  214  Occ=0.000000D+00  E= 4.524517D-01

 Vector  215  Occ=0.000000D+00  E= 4.543899D-01

 Vector  216  Occ=0.000000D+00  E= 4.555327D-01

 Vector  217  Occ=0.000000D+00  E= 4.597675D-01

 Vector  218  Occ=0.000000D+00  E= 4.609556D-01

 Vector  219  Occ=0.000000D+00  E= 4.657712D-01

 Vector  220  Occ=0.000000D+00  E= 4.711867D-01

 Vector  221  Occ=0.000000D+00  E= 4.721806D-01

 Vector  222  Occ=0.000000D+00  E= 4.734397D-01

 Vector  223  Occ=0.000000D+00  E= 4.773094D-01

 Vector  224  Occ=0.000000D+00  E= 4.805514D-01

 Vector  225  Occ=0.000000D+00  E= 4.848877D-01

 Vector  226  Occ=0.000000D+00  E= 4.851778D-01

 Vector  227  Occ=0.000000D+00  E= 4.918874D-01

 Vector  228  Occ=0.000000D+00  E= 4.976514D-01

 Vector  229  Occ=0.000000D+00  E= 5.048217D-01

       Multipole analysis of the density wrt the origin
       ------------------------------------------------

     L   x y z        total         open         nuclear
     -   - - -        -----         ----         -------
     0   0 0 0      0.000000      0.000000    176.000000

     1   1 0 0     -1.409614      0.000000      0.000000
     1   0 1 0     -1.213757      0.000000      0.000000
     1   0 0 1      0.082288      0.000000     -0.000000

     2   2 0 0   -106.667264      0.000000   1822.825945
     2   1 1 0     -7.450095      0.000000    -46.713566
     2   1 0 1      0.242565      0.000000     -6.049873
     2   0 2 0   -100.489214      0.000000   2265.708874
     2   0 1 1     -1.444886      0.000000      8.492438

 Total times  cpu:    11146.8s     wall:    11201.5s
