============================== echo of input deck ==============================
start ASP_ARG_0
geometry
H         -5.93700       12.82800        9.76700
C         -4.93700       12.40400        9.84100
H         -4.78300       11.67700        9.04500
H         -4.81600       11.92000       10.80800
C         -3.92100       13.51000        9.71300
O         -4.28000       14.67000        9.55900
N         -2.64300       13.14900        9.72200
H         -2.41900       12.16200        9.72100
C         -1.49800       14.07300        9.63500
H         -1.65100       14.86700       10.36700
C         -0.21300       13.31600       10.02200
H          0.59600       14.04200       10.12600
H         -0.35800       12.84400       10.99500
C          0.20700       12.24400        9.00900
O         -0.65900       11.71800        8.27700
O          1.43200       12.04500        8.84200
C         -1.34200       14.76200        8.25600
O         -0.45000       15.59300        8.06000
N         -2.20100       14.42700        7.28400
H         -2.84500       13.68200        7.51100
C         -2.38000       15.15200        6.01200
H         -1.45500       15.66100        5.75800
C         -2.73000       14.15900        4.88500
H         -3.67700       13.67700        5.13300
H         -2.88300       14.71700        3.96000
C         -1.68800       13.05700        4.60800
H         -1.53900       12.45400        5.50500
H         -2.11000       12.40000        3.84600
C         -0.33100       13.56300        4.08100
H          0.19600       12.72900        3.61400
H         -0.50700       14.31500        3.30900
N          0.51900       14.13500        5.14300
H          0.52600       15.13600        5.24700
C          1.18100       13.46900        6.07000
N          1.27900       12.17400        6.08500
H          0.72300       11.64100        5.45400
H          1.46000       11.77400        7.01100
N          1.72400       14.09700        7.06500
H          1.34000       14.99600        7.32100
H          2.03400       13.48800        7.82300
C         -3.41300       16.28700        6.08700
O         -3.56300       17.02800        5.12600
N         -4.12700       16.45600        7.19000
H         -4.00300       15.84100        7.98300
H         -4.78900       17.21100        7.21800
end

basis
 * library aug-cc-pvdz
end

echo

scf
 direct
end

task scf energy
================================================================================

 Output coordinates in angstroms (scale by  1.889725989 to convert to a.u.)

  No.       Tag          Charge          X              Y              Z
 ---- ---------------- ---------- -------------- -------------- --------------
    1 H                    1.0000     2.36807130    -4.14422590    -1.96759790
    2 C                    6.0000     2.67596306    -3.10639395    -1.85201459
    3 H                    1.0000     2.29127486    -2.51152040    -2.67905840
    4 H                    1.0000     3.76230580    -3.04759862    -1.83230276
    5 C                    6.0000     2.12989002    -2.57106052    -0.55313109
    6 O                    8.0000     1.46132338    -3.28543044     0.18232200
    7 N                    7.0000     2.36703519    -1.29123244    -0.28952483
    8 H                    1.0000     2.81310826    -0.72541212    -1.00030763
    9 C                    6.0000     1.94493261    -0.58247372     0.93189258
   10 H                    1.0000     2.24281654    -1.18604562     1.79016709
   11 C                    6.0000     2.69559723     0.76043360     1.01642405
   12 H                    1.0000     2.51342661     1.19509900     2.00143818
   13 H                    1.0000     3.76744292     0.57428760     0.93255217
   14 C                    6.0000     2.28298093     1.77301473    -0.05883418
   15 O                    8.0000     1.81117992     1.36175433    -1.14083449
   16 O                    8.0000     2.28815582     2.98702246     0.24820563
   17 C                    6.0000     0.41429656    -0.37055105     1.04564692
   18 O                    8.0000    -0.07840097     0.17088430     2.03999993
   19 N                    7.0000    -0.35630758    -0.78927442     0.03286363
   20 H                    1.0000     0.13989615    -1.14685967    -0.77162668
   21 C                    6.0000    -1.82528668    -0.91704525     0.07061307
   22 H                    1.0000    -2.22633755    -0.21340726     0.79398971
   23 C                    6.0000    -2.41708396    -0.59878660    -1.31761076
   24 H                    1.0000    -2.03450746    -1.33074509    -2.03070892
   25 H                    1.0000    -3.50013498    -0.72358204    -1.27489545
   26 C                    6.0000    -2.12282956     0.80997506    -1.87051394
   27 H                    1.0000    -1.04527089     0.95440050    -1.96231589
   28 H                    1.0000    -2.53946924     0.85324033    -2.87794458
   29 C                    6.0000    -2.74350687     1.96755615    -1.06430076
   30 H                    1.0000    -2.76579036     2.85941919    -1.69315509
   31 H                    1.0000    -3.77615228     1.71432733    -0.81533768
   32 N                    7.0000    -1.99712248     2.26945342     0.17234647
   33 H                    1.0000    -2.34439159     1.88175408     1.03371711
   34 C                    6.0000    -0.83679874     2.89114782     0.26330744
   35 N                    7.0000    -0.24765224     3.45359461    -0.74833183
   36 H                    1.0000    -0.60886017     3.29968705    -1.66333308
   37 H                    1.0000     0.76824592     3.54501342    -0.64918279
   38 N                    7.0000    -0.19195485     2.91226895     1.38713494
   39 H                    1.0000    -0.37953648     2.17483060     2.05210924
   40 H                    1.0000     0.77251564     3.23648072     1.30821480
   41 C                    6.0000    -2.31459730    -2.28214656     0.57856242
   42 O                    8.0000    -3.51033898    -2.46326980     0.75883496
   43 N                    7.0000    -1.43976523    -3.24702251     0.82073852
   44 H                    1.0000    -0.45148931    -3.09605627     0.66918033
   45 H                    1.0000    -1.78349040    -4.12730522     1.16133852

         Total SCF energy =  -1168.508820831525

 Vector  153  Occ=0.000000D+00  E= 2.383136D-01

 Vector  154  Occ=0.000000D+00  E= 2.476742D-01

 Vector  155  Occ=0.000000D+00  E= 2.484226D-01

 Vector  156  Occ=0.000000D+00  E= 2.524114D-01

 Vector  157  Occ=0.000000D+00  E= 2.569138D-01

 Vector  158  Occ=0.000000D+00  E= 2.578015D-01

 Vector  159  Occ=0.000000D+00  E= 2.647807D-01

 Vector  160  Occ=0.000000D+00  E= 2.651152D-01

 Vector  161  Occ=0.000000D+00  E= 2.706864D-01

 Vector  162  Occ=0.000000D+00  E= 2.746903D-01

 Vector  163  Occ=0.000000D+00  E= 2.770862D-01

 Vector  164  Occ=0.000000D+00  E= 2.801668D-01

 Vector  165  Occ=0.000000D+00  E= 2.845076D-01

 Vector  166  Occ=0.000000D+00  E= 2.875336D-01

 Vector  167  Occ=0.000000D+00  E= 2.907069D-01

 Vector  168  Occ=0.000000D+00  E= 2.950990D-01

 Vector  169  Occ=0.000000D+00  E= 2.975769D-01

 Vector  170  Occ=0.000000D+00  E= 3.065548D-01

 Vector  171  Occ=0.000000D+00  E= 3.085054D-01

 Vector  172  Occ=0.000000D+00  E= 3.123187D-01

 Vector  173  Occ=0.000000D+00  E= 3.175453D-01

 Vector  174  Occ=0.000000D+00  E= 3.213281D-01

 Vector  175  Occ=0.000000D+00  E= 3.232450D-01

 Vector  176  Occ=0.000000D+00  E= 3.273851D-01

 Vector  177  Occ=0.000000D+00  E= 3.333253D-01

 Vector  178  Occ=0.000000D+00  E= 3.338986D-01

 Vector  179  Occ=0.000000D+00  E= 3.364032D-01

 Vector  180  Occ=0.000000D+00  E= 3.391018D-01

 Vector  181  Occ=0.000000D+00  E= 3.425446D-01

 Vector  182  Occ=0.000000D+00  E= 3.462336D-01

 Vector  183  Occ=0.000000D+00  E= 3.474576D-01

 Vector  184  Occ=0.000000D+00  E= 3.539886D-01

 Vector  185  Occ=0.000000D+00  E= 3.555705D-01

 Vector  186  Occ=0.000000D+00  E= 3.619903D-01

 Vector  187  Occ=0.000000D+00  E= 3.645640D-01

 Vector  188  Occ=0.000000D+00  E= 3.679356D-01

 Vector  189  Occ=0.000000D+00  E= 3.710669D-01

 Vector  190  Occ=0.000000D+00  E= 3.724543D-01

 Vector  191  Occ=0.000000D+00  E= 3.740757D-01

 Vector  192  Occ=0.000000D+00  E= 3.776583D-01

 Vector  193  Occ=0.000000D+00  E= 3.791126D-01

 Vector  194  Occ=0.000000D+00  E= 3.867665D-01

 Vector  195  Occ=0.000000D+00  E= 3.908308D-01

 Vector  196  Occ=0.000000D+00  E= 3.916744D-01

 Vector  197  Occ=0.000000D+00  E= 3.930412D-01

 Vector  198  Occ=0.000000D+00  E= 3.949263D-01

 Vector  199  Occ=0.000000D+00  E= 3.973442D-01

 Vector  200  Occ=0.000000D+00  E= 3.988664D-01

 Vector  201  Occ=0.000000D+00  E= 4.022258D-01

 Vector  202  Occ=0.000000D+00  E= 4.068659D-01

 Vector  203  Occ=0.000000D+00  E= 4.098646D-01

 Vector  204  Occ=0.000000D+00  E= 4.130673D-01

 Vector  205  Occ=0.000000D+00  E= 4.141930D-01

 Vector  206  Occ=0.000000D+00  E= 4.155362D-01

 Vector  207  Occ=0.000000D+00  E= 4.246804D-01

 Vector  208  Occ=0.000000D+00  E= 4.248578D-01

 Vector  209  Occ=0.000000D+00  E= 4.304939D-01

 Vector  210  Occ=0.000000D+00  E= 4.315134D-01

 Vector  211  Occ=0.000000D+00  E= 4.325275D-01

 Vector  212  Occ=0.000000D+00  E= 4.355625D-01

 Vector  213  Occ=0.000000D+00  E= 4.371001D-01

 Vector  214  Occ=0.000000D+00  E= 4.416518D-01

 Vector  215  Occ=0.000000D+00  E= 4.458119D-01

 Vector  216  Occ=0.000000D+00  E= 4.501086D-01

 Vector  217  Occ=0.000000D+00  E= 4.539589D-01

 Vector  218  Occ=0.000000D+00  E= 4.554042D-01

 Vector  219  Occ=0.000000D+00  E= 4.580488D-01

 Vector  220  Occ=0.000000D+00  E= 4.591785D-01

 Vector  221  Occ=0.000000D+00  E= 4.657066D-01

 Vector  222  Occ=0.000000D+00  E= 4.682490D-01

 Vector  223  Occ=0.000000D+00  E= 4.704213D-01

 Vector  224  Occ=0.000000D+00  E= 4.725138D-01

 Vector  225  Occ=0.000000D+00  E= 4.749639D-01

 Vector  226  Occ=0.000000D+00  E= 4.795618D-01

 Vector  227  Occ=0.000000D+00  E= 4.828220D-01

 Vector  228  Occ=0.000000D+00  E= 4.887641D-01

 Vector  229  Occ=0.000000D+00  E= 4.930563D-01

 Vector  230  Occ=0.000000D+00  E= 4.939843D-01

 Vector  231  Occ=0.000000D+00  E= 4.981462D-01

 Vector  232  Occ=0.000000D+00  E= 5.068787D-01

       Multipole analysis of the density wrt the origin
       ------------------------------------------------

     L   x y z        total         open         nuclear
     -   - - -        -----         ----         -------
     0   0 0 0     -0.000000      0.000000    176.000000

     1   1 0 0     -0.304698      0.000000     -0.000000
     1   0 1 0      0.232052      0.000000      0.000000
     1   0 0 1     -1.473725      0.000000      0.000000

     2   2 0 0   -106.457528      0.000000   2568.671926
     2   1 1 0    -23.273224      0.000000    -56.235136
     2   1 0 1      5.862108      0.000000     21.055035
     2   0 2 0   -111.013833      0.000000   3036.451295
     2   0 1 1      4.160675      0.000000     20.802803

 Total times  cpu:     9204.6s     wall:     9234.5s
