============================== echo of input deck ==============================
start ASP_ARG_3
geometry
H         12.01600        1.49500        4.24300
C         11.03100        1.03100        4.24800
H         10.28200        1.75500        4.56100
H         11.03000        0.18200        4.92900
C         10.70700        0.54700        2.85600
O         11.50900        0.70200        1.94400
N          9.50800        0.00200        2.68400
H          8.85200        0.02800        3.45300
C          8.99500       -0.51300        1.40300
H          9.68200       -1.27300        1.03000
C          7.62000       -1.16400        1.64300
H          7.34300       -1.72100        0.74600
H          7.69500       -1.87500        2.46700
C          6.52100       -0.14000        1.95700
O          5.43400       -0.25800        1.35100
O          6.79400        0.85300        2.66300
C          8.86200        0.57400        0.31400
O          8.81100        0.27100       -0.88000
N          8.79600        1.84800        0.72000
H          8.69700        1.98200        1.72000
C          8.80300        3.02500       -0.16100
H          8.20100        2.80100       -1.03400
C          8.19600        4.23700        0.57100
H          8.87000        4.52300        1.38100
H          8.15300        5.07500       -0.12600
C          6.78900        4.04900        1.17500
H          6.82300        3.31500        1.97900
H          6.50800        4.99900        1.62900
C          5.67900        3.67300        0.17700
H          4.72500        3.96700        0.61800
H          5.80900        4.24700       -0.74000
N          5.61200        2.22200       -0.09100
H          5.46800        1.61000        0.71700
C          5.77600        1.58300       -1.23500
N          6.06800        2.18900       -2.35300
H          6.24100        1.64500       -3.17400
H          6.19900        3.18100       -2.34100
N          5.65300        0.29400       -1.27100
H          5.45300       -0.15500       -0.37000
H          5.98900       -0.24600       -2.03900
C         10.18600        3.36400       -0.73600
O         10.27700        4.22300       -1.60300
N         11.25900        2.72600       -0.29300
H         11.16900        2.00600        0.41300
H         12.15200        2.95200       -0.69300
end

basis
 * library aug-cc-pvdz
end

echo

scf
 direct
end

task scf energy
================================================================================

 Output coordinates in angstroms (scale by  1.889725989 to convert to a.u.)

  No.       Tag          Charge          X              Y              Z
 ---- ---------------- ---------- -------------- -------------- --------------
    1 H                    1.0000     0.16417835    -5.04281989     1.39397892
    2 C                    6.0000    -0.66393632    -4.33593613     1.38462833
    3 H                    1.0000    -0.64615994    -3.73247720     2.28943070
    4 H                    1.0000    -1.60612419    -4.87705430     1.32109764
    5 C                    6.0000    -0.53012069    -3.43576522     0.18101639
    6 O                    8.0000     0.40369735    -3.57783283    -0.59794039
    7 N                    7.0000    -1.44055035    -2.47672795     0.05621515
    8 H                    1.0000    -2.10278607    -2.34012364     0.80798381
    9 C                    6.0000    -1.47427848    -1.48683949    -1.03389414
   10 H                    1.0000    -1.52105102    -2.01529893    -1.98638611
   11 C                    6.0000    -2.74134313    -0.62422813    -0.88397821
   12 H                    1.0000    -2.86887704    -0.04046422    -1.79751080
   13 H                    1.0000    -3.61136000    -1.27404829    -0.77944872
   14 C                    6.0000    -2.67569762     0.33000531     0.31606438
   15 O                    8.0000    -3.01473531     1.51814729     0.12606154
   16 O                    8.0000    -2.14053826    -0.05625742     1.37597927
   17 C                    6.0000    -0.23281215    -0.56878887    -1.06741153
   18 O                    8.0000     0.07607430     0.04100899    -2.09346306
   19 N                    7.0000     0.48201064    -0.45788992     0.05908649
   20 H                    1.0000     0.06553183    -0.87783757     0.88246148
   21 C                    6.0000     1.76154252     0.25424614     0.19023303
   22 H                    1.0000     1.70771508     1.16311892    -0.39778217
   23 C                    6.0000     2.01258145     0.62327856     1.66468598
   24 H                    1.0000     2.17679228    -0.29808915     2.22708117
   25 H                    1.0000     2.93249293     1.20664377     1.72256422
   26 C                    6.0000     0.90042963     1.41809555     2.37966380
   27 H                    1.0000     0.00265559     0.80761876     2.46711587
   28 H                    1.0000     1.24888616     1.61091658     3.39404790
   29 C                    6.0000     0.54318238     2.77775197     1.75261610
   30 H                    1.0000     0.08428255     3.38992405     2.53087652
   31 H                    1.0000     1.45671407     3.27933988     1.43459970
   32 N                    7.0000    -0.43155407     2.66514779     0.64856758
   33 H                    1.0000    -1.32908643     2.22469236     0.86897332
   34 C                    6.0000    -0.28720920     3.00028434    -0.62060579
   35 N                    7.0000     0.82328133     3.48221305    -1.10741120
   36 H                    1.0000     0.89128761     3.65910537    -2.08924125
   37 H                    1.0000     1.61143291     3.57997942    -0.49861910
   38 N                    7.0000    -1.27857933     2.84529806    -1.43981914
   39 H                    1.0000    -2.12719739     2.43631634    -1.03240860
   40 H                    1.0000    -1.15214185     2.86116655    -2.42879930
   41 C                    6.0000     2.95937390    -0.50401722    -0.40008187
   42 O                    8.0000     4.03992544     0.06390163    -0.48798835
   43 N                    7.0000     2.81173764    -1.75561105    -0.80792794
   44 H                    1.0000     1.90893778    -2.20939539    -0.74493438
   45 H                    1.0000     3.60379391    -2.22848541    -1.20486837

         Total SCF energy =  -1168.507389001584

 Vector  151  Occ=0.000000D+00  E= 2.349845D-01

 Vector  152  Occ=0.000000D+00  E= 2.391668D-01

 Vector  153  Occ=0.000000D+00  E= 2.415611D-01

 Vector  154  Occ=0.000000D+00  E= 2.435062D-01

 Vector  155  Occ=0.000000D+00  E= 2.457588D-01

 Vector  156  Occ=0.000000D+00  E= 2.479113D-01

 Vector  157  Occ=0.000000D+00  E= 2.569360D-01

 Vector  158  Occ=0.000000D+00  E= 2.598644D-01

 Vector  159  Occ=0.000000D+00  E= 2.637309D-01

 Vector  160  Occ=0.000000D+00  E= 2.688909D-01

 Vector  161  Occ=0.000000D+00  E= 2.728754D-01

 Vector  162  Occ=0.000000D+00  E= 2.762174D-01

 Vector  163  Occ=0.000000D+00  E= 2.784223D-01

 Vector  164  Occ=0.000000D+00  E= 2.831613D-01

 Vector  165  Occ=0.000000D+00  E= 2.912824D-01

 Vector  166  Occ=0.000000D+00  E= 2.924193D-01

 Vector  167  Occ=0.000000D+00  E= 2.952456D-01

 Vector  168  Occ=0.000000D+00  E= 2.991625D-01

 Vector  169  Occ=0.000000D+00  E= 3.047765D-01

 Vector  170  Occ=0.000000D+00  E= 3.087166D-01

 Vector  171  Occ=0.000000D+00  E= 3.135025D-01

 Vector  172  Occ=0.000000D+00  E= 3.183654D-01

 Vector  173  Occ=0.000000D+00  E= 3.214360D-01

 Vector  174  Occ=0.000000D+00  E= 3.225203D-01

 Vector  175  Occ=0.000000D+00  E= 3.274923D-01

 Vector  176  Occ=0.000000D+00  E= 3.305447D-01

 Vector  177  Occ=0.000000D+00  E= 3.336523D-01

 Vector  178  Occ=0.000000D+00  E= 3.358795D-01

 Vector  179  Occ=0.000000D+00  E= 3.401714D-01

 Vector  180  Occ=0.000000D+00  E= 3.451319D-01

 Vector  181  Occ=0.000000D+00  E= 3.473540D-01

 Vector  182  Occ=0.000000D+00  E= 3.514739D-01

 Vector  183  Occ=0.000000D+00  E= 3.534926D-01

 Vector  184  Occ=0.000000D+00  E= 3.586804D-01

 Vector  185  Occ=0.000000D+00  E= 3.613696D-01

 Vector  186  Occ=0.000000D+00  E= 3.645293D-01

 Vector  187  Occ=0.000000D+00  E= 3.669993D-01

 Vector  188  Occ=0.000000D+00  E= 3.727142D-01

 Vector  189  Occ=0.000000D+00  E= 3.754409D-01

 Vector  190  Occ=0.000000D+00  E= 3.787800D-01

 Vector  191  Occ=0.000000D+00  E= 3.806304D-01

 Vector  192  Occ=0.000000D+00  E= 3.827996D-01

 Vector  193  Occ=0.000000D+00  E= 3.869145D-01

 Vector  194  Occ=0.000000D+00  E= 3.895169D-01

 Vector  195  Occ=0.000000D+00  E= 3.918381D-01

 Vector  196  Occ=0.000000D+00  E= 3.927651D-01

 Vector  197  Occ=0.000000D+00  E= 3.967234D-01

 Vector  198  Occ=0.000000D+00  E= 3.998565D-01

 Vector  199  Occ=0.000000D+00  E= 4.027978D-01

 Vector  200  Occ=0.000000D+00  E= 4.033724D-01

 Vector  201  Occ=0.000000D+00  E= 4.106095D-01

 Vector  202  Occ=0.000000D+00  E= 4.115141D-01

 Vector  203  Occ=0.000000D+00  E= 4.150695D-01

 Vector  204  Occ=0.000000D+00  E= 4.180214D-01

 Vector  205  Occ=0.000000D+00  E= 4.220299D-01

 Vector  206  Occ=0.000000D+00  E= 4.231831D-01

 Vector  207  Occ=0.000000D+00  E= 4.253294D-01

 Vector  208  Occ=0.000000D+00  E= 4.296563D-01

 Vector  209  Occ=0.000000D+00  E= 4.320665D-01

 Vector  210  Occ=0.000000D+00  E= 4.344103D-01

 Vector  211  Occ=0.000000D+00  E= 4.381748D-01

 Vector  212  Occ=0.000000D+00  E= 4.419774D-01

 Vector  213  Occ=0.000000D+00  E= 4.440236D-01

 Vector  214  Occ=0.000000D+00  E= 4.458996D-01

 Vector  215  Occ=0.000000D+00  E= 4.491355D-01

 Vector  216  Occ=0.000000D+00  E= 4.542336D-01

 Vector  217  Occ=0.000000D+00  E= 4.548815D-01

 Vector  218  Occ=0.000000D+00  E= 4.589822D-01

 Vector  219  Occ=0.000000D+00  E= 4.606774D-01

 Vector  220  Occ=0.000000D+00  E= 4.646178D-01

 Vector  221  Occ=0.000000D+00  E= 4.690546D-01

 Vector  222  Occ=0.000000D+00  E= 4.713808D-01

 Vector  223  Occ=0.000000D+00  E= 4.749383D-01

 Vector  224  Occ=0.000000D+00  E= 4.768670D-01

 Vector  225  Occ=0.000000D+00  E= 4.824990D-01

 Vector  226  Occ=0.000000D+00  E= 4.847549D-01

 Vector  227  Occ=0.000000D+00  E= 4.869034D-01

 Vector  228  Occ=0.000000D+00  E= 4.945883D-01

 Vector  229  Occ=0.000000D+00  E= 4.953965D-01

 Vector  230  Occ=0.000000D+00  E= 5.025125D-01

       Multipole analysis of the density wrt the origin
       ------------------------------------------------

     L   x y z        total         open         nuclear
     -   - - -        -----         ----         -------
     0   0 0 0     -0.000000      0.000000    176.000000

     1   1 0 0     -0.152757      0.000000      0.000000
     1   0 1 0      1.272469      0.000000     -0.000000
     1   0 0 1      0.390126      0.000000      0.000000

     2   2 0 0   -123.392421      0.000000   2204.166549
     2   1 1 0     12.745300      0.000000     34.273478
     2   1 0 1      9.385473      0.000000     30.392925
     2   0 2 0    -83.146975      0.000000   3053.994112
     2   0 1 1     -9.475034      0.000000    -18.584558

 Total times  cpu:    10305.5s     wall:    10339.9s
