============================== echo of input deck ==============================
start GLN_GLN_1
geometry
H          5.99500        3.34300       -2.89800
C          6.72800        3.92400       -2.34000
H          7.67400        3.93400       -2.87900
H          6.87000        3.48600       -1.35500
C          6.22900        5.34100       -2.19300
O          6.87500        6.27400       -2.64900
N          5.08800        5.50300       -1.52700
H          4.61700        4.66700       -1.19700
C          4.37500        6.78000       -1.35500
H          4.20000        7.19000       -2.35000
C          2.99700        6.50200       -0.71900
H          2.42800        7.43300       -0.74400
H          2.45300        5.78300       -1.33300
C          3.02600        6.01200        0.74400
H          3.65800        6.67100        1.33800
H          2.01700        6.08900        1.14900
C          3.47800        4.56100        0.93200
O          3.48300        3.74300        0.02700
N          3.90800        4.17900        2.11100
H          4.09500        3.20200        2.23500
H          4.03000        4.87000        2.85100
C          5.13700        7.87500       -0.57400
O          4.67600        9.01200       -0.51400
N          6.28600        7.55700        0.03000
H          6.63200        6.61800       -0.10200
C          7.18400        8.51300        0.68400
H          7.15300        9.43700        0.10500
C          6.69800        8.84500        2.11400
H          7.19500        9.76700        2.41700
H          5.62800        9.05700        2.09000
C          6.97000        7.80400        3.22000
H          8.04100        7.62100        3.30300
H          6.64100        8.22600        4.17000
C          6.24400        6.47700        3.02500
O          5.14700        6.25800        3.51400
N          6.81500        5.53500        2.30700
H          6.31100        4.67400        2.19200
H          7.71200        5.71600        1.86500
C          8.63200        7.99900        0.66500
O          8.88000        6.80500        0.82500
N          9.60900        8.88300        0.51900
H          9.39700        9.85800        0.38700
H         10.55700        8.54600        0.50300
end

basis
 * library aug-cc-pvdz
end

echo

scf
 direct
end

task scf energy
================================================================================

 Output coordinates in angstroms (scale by  1.889725989 to convert to a.u.)

  No.       Tag          Charge          X              Y              Z
 ---- ---------------- ---------- -------------- -------------- --------------
    1 H                    1.0000     2.99615560    -2.75077431     2.16667579
    2 C                    6.0000     2.73851629    -1.69311480     2.20120633
    3 H                    1.0000     3.55314150    -1.13282366     2.65727278
    4 H                    1.0000     1.82822144    -1.55627672     2.77988728
    5 C                    6.0000     2.52062877    -1.19015097     0.79477418
    6 O                    8.0000     3.21344223    -0.28712599     0.34722931
    7 N                    7.0000     1.53310669    -1.75864363     0.10680817
    8 H                    1.0000     1.02132327    -2.50960550     0.55821818
    9 C                    6.0000     1.21458427    -1.49201110    -1.30603739
   10 H                    1.0000     2.12208300    -1.67312759    -1.88257262
   11 C                    6.0000     0.15368102    -2.50714681    -1.78000762
   12 H                    1.0000     0.04773374    -2.39379127    -2.86031901
   13 H                    1.0000     0.51715553    -3.52029653    -1.60306998
   14 C                    6.0000    -1.24769445    -2.34616428    -1.15427490
   15 H                    1.0000    -1.56738538    -1.30800457    -1.23528809
   16 H                    1.0000    -1.95097183    -2.94178769    -1.73622738
   17 C                    6.0000    -1.36346279    -2.80653102     0.30164719
   18 O                    8.0000    -0.55387882    -3.54994324     0.83087876
   19 N                    7.0000    -2.36107394    -2.36310763     1.02897978
   20 H                    1.0000    -2.47437980    -2.76217512     1.94154809
   21 H                    1.0000    -2.98116122    -1.64726552     0.65079088
   22 C                    6.0000     0.78522142    -0.04417213    -1.63624923
   23 O                    8.0000     0.64562898     0.29682845    -2.80805235
   24 N                    7.0000     0.56624750     0.80997379    -0.63194541
   25 H                    1.0000     0.74825565     0.47809402     0.30378417
   26 C                    6.0000     0.29268040     2.24106073    -0.79071323
   27 H                    1.0000     0.88312629     2.59316621    -1.63769220
   28 C                    6.0000    -1.19597730     2.48943183    -1.12765547
   29 H                    1.0000    -1.26900302     3.49590361    -1.54067340
   30 H                    1.0000    -1.50573621     1.80196487    -1.91623557
   31 C                    6.0000    -2.21352536     2.40395783     0.02914665
   32 H                    1.0000    -1.95752250     3.12654262     0.80358371
   33 H                    1.0000    -3.19284675     2.68312873    -0.36049194
   34 C                    6.0000    -2.33968599     1.01788487     0.65277733
   35 O                    8.0000    -3.16776319     0.20605236     0.27106130
   36 N                    7.0000    -1.53163964     0.68213521     1.63423659
   37 H                    1.0000    -1.63499773    -0.23862368     2.02164099
   38 H                    1.0000    -0.81459121     1.33476012     1.93863152
   39 C                    6.0000     0.74740881     3.02240601     0.45185774
   40 O                    8.0000     0.60721426     2.55183041     1.57952972
   41 N                    7.0000     1.25108607     4.23641196     0.27923164
   42 H                    1.0000     1.36378302     4.61314008    -0.64725005
   43 H                    1.0000     1.55213166     4.74662706     1.09260800

         Total SCF energy =  -1113.486038233059

 Vector  144  Occ=0.000000D+00  E= 2.279163D-01

 Vector  145  Occ=0.000000D+00  E= 2.308731D-01

 Vector  146  Occ=0.000000D+00  E= 2.320250D-01

 Vector  147  Occ=0.000000D+00  E= 2.376504D-01

 Vector  148  Occ=0.000000D+00  E= 2.443673D-01

 Vector  149  Occ=0.000000D+00  E= 2.460365D-01

 Vector  150  Occ=0.000000D+00  E= 2.482312D-01

 Vector  151  Occ=0.000000D+00  E= 2.544143D-01

 Vector  152  Occ=0.000000D+00  E= 2.579815D-01

 Vector  153  Occ=0.000000D+00  E= 2.616862D-01

 Vector  154  Occ=0.000000D+00  E= 2.648415D-01

 Vector  155  Occ=0.000000D+00  E= 2.710412D-01

 Vector  156  Occ=0.000000D+00  E= 2.771446D-01

 Vector  157  Occ=0.000000D+00  E= 2.854716D-01

 Vector  158  Occ=0.000000D+00  E= 2.879748D-01

 Vector  159  Occ=0.000000D+00  E= 2.919043D-01

 Vector  160  Occ=0.000000D+00  E= 2.959802D-01

 Vector  161  Occ=0.000000D+00  E= 2.990296D-01

 Vector  162  Occ=0.000000D+00  E= 3.025679D-01

 Vector  163  Occ=0.000000D+00  E= 3.098277D-01

 Vector  164  Occ=0.000000D+00  E= 3.128498D-01

 Vector  165  Occ=0.000000D+00  E= 3.151769D-01

 Vector  166  Occ=0.000000D+00  E= 3.257765D-01

 Vector  167  Occ=0.000000D+00  E= 3.279687D-01

 Vector  168  Occ=0.000000D+00  E= 3.302131D-01

 Vector  169  Occ=0.000000D+00  E= 3.352442D-01

 Vector  170  Occ=0.000000D+00  E= 3.370203D-01

 Vector  171  Occ=0.000000D+00  E= 3.429853D-01

 Vector  172  Occ=0.000000D+00  E= 3.473959D-01

 Vector  173  Occ=0.000000D+00  E= 3.487230D-01

 Vector  174  Occ=0.000000D+00  E= 3.518405D-01

 Vector  175  Occ=0.000000D+00  E= 3.551722D-01

 Vector  176  Occ=0.000000D+00  E= 3.555935D-01

 Vector  177  Occ=0.000000D+00  E= 3.594428D-01

 Vector  178  Occ=0.000000D+00  E= 3.631649D-01

 Vector  179  Occ=0.000000D+00  E= 3.648098D-01

 Vector  180  Occ=0.000000D+00  E= 3.685067D-01

 Vector  181  Occ=0.000000D+00  E= 3.697062D-01

 Vector  182  Occ=0.000000D+00  E= 3.731009D-01

 Vector  183  Occ=0.000000D+00  E= 3.759235D-01

 Vector  184  Occ=0.000000D+00  E= 3.795557D-01

 Vector  185  Occ=0.000000D+00  E= 3.825766D-01

 Vector  186  Occ=0.000000D+00  E= 3.850091D-01

 Vector  187  Occ=0.000000D+00  E= 3.872613D-01

 Vector  188  Occ=0.000000D+00  E= 3.880501D-01

 Vector  189  Occ=0.000000D+00  E= 3.903176D-01

 Vector  190  Occ=0.000000D+00  E= 3.938751D-01

 Vector  191  Occ=0.000000D+00  E= 3.975619D-01

 Vector  192  Occ=0.000000D+00  E= 4.020994D-01

 Vector  193  Occ=0.000000D+00  E= 4.051078D-01

 Vector  194  Occ=0.000000D+00  E= 4.092409D-01

 Vector  195  Occ=0.000000D+00  E= 4.127134D-01

 Vector  196  Occ=0.000000D+00  E= 4.137841D-01

 Vector  197  Occ=0.000000D+00  E= 4.168187D-01

 Vector  198  Occ=0.000000D+00  E= 4.203062D-01

 Vector  199  Occ=0.000000D+00  E= 4.230957D-01

 Vector  200  Occ=0.000000D+00  E= 4.258416D-01

 Vector  201  Occ=0.000000D+00  E= 4.269752D-01

 Vector  202  Occ=0.000000D+00  E= 4.349401D-01

 Vector  203  Occ=0.000000D+00  E= 4.378806D-01

 Vector  204  Occ=0.000000D+00  E= 4.389280D-01

 Vector  205  Occ=0.000000D+00  E= 4.415791D-01

 Vector  206  Occ=0.000000D+00  E= 4.458947D-01

 Vector  207  Occ=0.000000D+00  E= 4.488836D-01

 Vector  208  Occ=0.000000D+00  E= 4.543466D-01

 Vector  209  Occ=0.000000D+00  E= 4.554504D-01

 Vector  210  Occ=0.000000D+00  E= 4.583953D-01

 Vector  211  Occ=0.000000D+00  E= 4.641665D-01

 Vector  212  Occ=0.000000D+00  E= 4.663460D-01

 Vector  213  Occ=0.000000D+00  E= 4.696032D-01

 Vector  214  Occ=0.000000D+00  E= 4.729229D-01

 Vector  215  Occ=0.000000D+00  E= 4.751421D-01

 Vector  216  Occ=0.000000D+00  E= 4.827585D-01

 Vector  217  Occ=0.000000D+00  E= 4.847196D-01

 Vector  218  Occ=0.000000D+00  E= 4.856172D-01

 Vector  219  Occ=0.000000D+00  E= 4.891358D-01

 Vector  220  Occ=0.000000D+00  E= 4.911417D-01

 Vector  221  Occ=0.000000D+00  E= 4.937497D-01

 Vector  222  Occ=0.000000D+00  E= 4.978388D-01

 Vector  223  Occ=0.000000D+00  E= 5.082294D-01

       Multipole analysis of the density wrt the origin
       ------------------------------------------------

     L   x y z        total         open         nuclear
     -   - - -        -----         ----         -------
     0   0 0 0      0.000000      0.000000    168.000000

     1   1 0 0     -0.630482      0.000000      0.000000
     1   0 1 0      1.744092      0.000000      0.000000
     1   0 0 1      0.687211      0.000000      0.000000

     2   2 0 0   -108.141665      0.000000   1880.532063
     2   1 1 0      2.410317      0.000000    -17.483678
     2   1 0 1      0.743005      0.000000     25.384957
     2   0 2 0    -78.458915      0.000000   2903.874029
     2   0 1 1     -0.890345      0.000000    -10.369196

 Total times  cpu:    23006.8s     wall:    23082.6s
