============================== echo of input deck ==============================
start GLN_CYS_4
geometry
H         13.28300        0.87000       -3.58200
C         13.80800        1.78200       -3.30100
H         14.81800        1.76200       -3.70600
H         13.84400        1.86500       -2.21700
C         13.06700        2.96900       -3.86900
O         12.04400        2.80400       -4.52300
N         13.58100        4.17100       -3.61600
H         14.43400        4.23600       -3.08000
C         13.02700        5.42700       -4.12700
H         12.67000        5.24600       -5.14200
C         11.83400        5.84700       -3.24000
H         11.11000        5.03200       -3.21800
H         12.18600        6.00400       -2.21900
C         11.10600        7.11700       -3.70600
H         10.19100        7.23200       -3.12400
H         11.73800        7.98600       -3.51500
C         10.75000        7.07900       -5.18700
O         11.28900        7.82600       -5.98600
N          9.92300        6.16000       -5.63100
H          9.54200        5.46700       -5.01100
H          9.75300        6.14700       -6.62100
C         14.11700        6.51000       -4.19700
O         14.99300        6.54900       -3.33700
N         14.04600        7.39100       -5.20200
H         13.26900        7.31800       -5.84600
C         15.06000        8.41900       -5.48100
H         15.82000        8.40000       -4.69800
C         15.75300        8.09100       -6.81500
H         15.03400        8.17400       -7.63100
H         16.55100        8.81800       -6.98000
S         16.46400        6.41600       -6.80100
H         17.09800        6.49300       -7.97700
C         14.50300        9.85600       -5.50600
O         15.26700       10.81200       -5.50800
N         13.19000       10.05600       -5.53900
H         12.85600       11.00500       -5.56100
H         12.55100        9.27500       -5.59400
end

basis
 * library aug-cc-pvdz
end

echo

scf
 direct
end

task scf energy
================================================================================

 Output coordinates in angstroms (scale by  1.889725989 to convert to a.u.)

  No.       Tag          Charge          X              Y              Z
 ---- ---------------- ---------- -------------- -------------- --------------
    1 H                    1.0000     2.10125687    -5.46590380    -0.23855224
    2 C                    6.0000     2.16572011    -4.56484147     0.36993866
    3 H                    1.0000     3.11612923    -4.06717197     0.18671047
    4 H                    1.0000     2.08013678    -4.82636780     1.42232664
    5 C                    6.0000     1.03625451    -3.63630754    -0.00795843
    6 O                    8.0000     0.23361572    -3.96013009    -0.87535680
    7 N                    7.0000     0.96968159    -2.47901088     0.64720680
    8 H                    1.0000     1.67049869    -2.26895049     1.34280728
    9 C                    6.0000    -0.02479548    -1.43757058     0.37889644
   10 H                    1.0000    -0.19236013    -1.40557387    -0.69875531
   11 C                    6.0000    -1.34707473    -1.81260032     1.08412569
   12 H                    1.0000    -1.65539251    -2.80252257     0.74666593
   13 H                    1.0000    -1.17427785    -1.86923691     2.16019610
   14 C                    6.0000    -2.50787970    -0.83981018     0.82673267
   15 H                    1.0000    -3.42649469    -1.27556206     1.22099247
   16 H                    1.0000    -2.32175839     0.09361239     1.36072438
   17 C                    6.0000    -2.69973329    -0.53416541    -0.65357624
   18 O                    8.0000    -2.47004330     0.57511240    -1.10488129
   19 N                    7.0000    -3.02116673    -1.50428790    -1.47890581
   20 H                    1.0000    -3.11762814    -2.44913249    -1.15061645
   21 H                    1.0000    -3.09337516    -1.26329077    -2.45146703
   22 C                    6.0000     0.50340332    -0.06027106     0.81471869
   23 O                    8.0000     1.21127398     0.03223390     1.81414801
   24 N                    7.0000     0.14167610     0.99849103     0.08027791
   25 H                    1.0000    -0.47894454     0.84508001    -0.70399824
   26 C                    6.0000     0.64066131     2.36605545     0.28908961
   27 H                    1.0000     1.27443492     2.38868279     1.17727259
   28 C                    6.0000     1.50699320     2.77330985    -0.91548580
   29 H                    1.0000     0.88551943     2.83238821    -1.80990521
   30 H                    1.0000     1.93037701     3.76096114    -0.72093738
   31 S                   16.0000     2.85911002     1.58764144    -1.19353710
   32 H                    1.0000     3.48803186     2.27295735    -2.15564958
   33 C                    6.0000    -0.47056110     3.40762145     0.52608758
   34 O                    8.0000    -0.18761844     4.52865820     0.92715621
   35 N                    7.0000    -1.73731916     3.09074817     0.28119304
   36 H                    1.0000    -2.44022849     3.79327133     0.43937232
   37 H                    1.0000    -1.97754049     2.18739707    -0.10293910

         Total SCF energy =  -1304.164671590167

 Vector  125  Occ=0.000000D+00  E= 1.998435D-01

 Vector  126  Occ=0.000000D+00  E= 2.034002D-01

 Vector  127  Occ=0.000000D+00  E= 2.076698D-01

 Vector  128  Occ=0.000000D+00  E= 2.084505D-01

 Vector  129  Occ=0.000000D+00  E= 2.113544D-01

 Vector  130  Occ=0.000000D+00  E= 2.173776D-01

 Vector  131  Occ=0.000000D+00  E= 2.211782D-01

 Vector  132  Occ=0.000000D+00  E= 2.223414D-01

 Vector  133  Occ=0.000000D+00  E= 2.289002D-01

 Vector  134  Occ=0.000000D+00  E= 2.334945D-01

 Vector  135  Occ=0.000000D+00  E= 2.355682D-01

 Vector  136  Occ=0.000000D+00  E= 2.404000D-01

 Vector  137  Occ=0.000000D+00  E= 2.439697D-01

 Vector  138  Occ=0.000000D+00  E= 2.493972D-01

 Vector  139  Occ=0.000000D+00  E= 2.557637D-01

 Vector  140  Occ=0.000000D+00  E= 2.577735D-01

 Vector  141  Occ=0.000000D+00  E= 2.649400D-01

 Vector  142  Occ=0.000000D+00  E= 2.681196D-01

 Vector  143  Occ=0.000000D+00  E= 2.694877D-01

 Vector  144  Occ=0.000000D+00  E= 2.716904D-01

 Vector  145  Occ=0.000000D+00  E= 2.793503D-01

 Vector  146  Occ=0.000000D+00  E= 2.813289D-01

 Vector  147  Occ=0.000000D+00  E= 2.853981D-01

 Vector  148  Occ=0.000000D+00  E= 2.933461D-01

 Vector  149  Occ=0.000000D+00  E= 2.973934D-01

 Vector  150  Occ=0.000000D+00  E= 3.018011D-01

 Vector  151  Occ=0.000000D+00  E= 3.063293D-01

 Vector  152  Occ=0.000000D+00  E= 3.078226D-01

 Vector  153  Occ=0.000000D+00  E= 3.116548D-01

 Vector  154  Occ=0.000000D+00  E= 3.134397D-01

 Vector  155  Occ=0.000000D+00  E= 3.200905D-01

 Vector  156  Occ=0.000000D+00  E= 3.240872D-01

 Vector  157  Occ=0.000000D+00  E= 3.337947D-01

 Vector  158  Occ=0.000000D+00  E= 3.344725D-01

 Vector  159  Occ=0.000000D+00  E= 3.389568D-01

 Vector  160  Occ=0.000000D+00  E= 3.437467D-01

 Vector  161  Occ=0.000000D+00  E= 3.475585D-01

 Vector  162  Occ=0.000000D+00  E= 3.510230D-01

 Vector  163  Occ=0.000000D+00  E= 3.544290D-01

 Vector  164  Occ=0.000000D+00  E= 3.594424D-01

 Vector  165  Occ=0.000000D+00  E= 3.631838D-01

 Vector  166  Occ=0.000000D+00  E= 3.662132D-01

 Vector  167  Occ=0.000000D+00  E= 3.696488D-01

 Vector  168  Occ=0.000000D+00  E= 3.723894D-01

 Vector  169  Occ=0.000000D+00  E= 3.762996D-01

 Vector  170  Occ=0.000000D+00  E= 3.772121D-01

 Vector  171  Occ=0.000000D+00  E= 3.828569D-01

 Vector  172  Occ=0.000000D+00  E= 3.889916D-01

 Vector  173  Occ=0.000000D+00  E= 3.898835D-01

 Vector  174  Occ=0.000000D+00  E= 3.918478D-01

 Vector  175  Occ=0.000000D+00  E= 3.956890D-01

 Vector  176  Occ=0.000000D+00  E= 3.992804D-01

 Vector  177  Occ=0.000000D+00  E= 4.063106D-01

 Vector  178  Occ=0.000000D+00  E= 4.073330D-01

 Vector  179  Occ=0.000000D+00  E= 4.106924D-01

 Vector  180  Occ=0.000000D+00  E= 4.144594D-01

 Vector  181  Occ=0.000000D+00  E= 4.195742D-01

 Vector  182  Occ=0.000000D+00  E= 4.201155D-01

 Vector  183  Occ=0.000000D+00  E= 4.280976D-01

 Vector  184  Occ=0.000000D+00  E= 4.298316D-01

 Vector  185  Occ=0.000000D+00  E= 4.300171D-01

 Vector  186  Occ=0.000000D+00  E= 4.350584D-01

 Vector  187  Occ=0.000000D+00  E= 4.385472D-01

 Vector  188  Occ=0.000000D+00  E= 4.413122D-01

 Vector  189  Occ=0.000000D+00  E= 4.448160D-01

 Vector  190  Occ=0.000000D+00  E= 4.487214D-01

 Vector  191  Occ=0.000000D+00  E= 4.518935D-01

 Vector  192  Occ=0.000000D+00  E= 4.524427D-01

 Vector  193  Occ=0.000000D+00  E= 4.558904D-01

 Vector  194  Occ=0.000000D+00  E= 4.588883D-01

 Vector  195  Occ=0.000000D+00  E= 4.603060D-01

 Vector  196  Occ=0.000000D+00  E= 4.643041D-01

 Vector  197  Occ=0.000000D+00  E= 4.768332D-01

 Vector  198  Occ=0.000000D+00  E= 4.791389D-01

 Vector  199  Occ=0.000000D+00  E= 4.822603D-01

 Vector  200  Occ=0.000000D+00  E= 4.844907D-01

 Vector  201  Occ=0.000000D+00  E= 4.893449D-01

 Vector  202  Occ=0.000000D+00  E= 4.953721D-01

 Vector  203  Occ=0.000000D+00  E= 4.994283D-01

 Vector  204  Occ=0.000000D+00  E= 5.034969D-01

       Multipole analysis of the density wrt the origin
       ------------------------------------------------

     L   x y z        total         open         nuclear
     -   - - -        -----         ----         -------
     0   0 0 0      0.000000      0.000000    154.000000

     1   1 0 0     -1.443558      0.000000     -0.000000
     1   0 1 0     -1.872428      0.000000     -0.000000
     1   0 0 1     -0.625875      0.000000     -0.000000

     2   2 0 0    -78.709296      0.000000   1856.585158
     2   1 1 0      0.838842      0.000000    -14.540214
     2   1 0 1     -3.032887      0.000000     -7.369406
     2   0 2 0   -104.868908      0.000000   3597.532902
     2   0 1 1    -12.970336      0.000000    -33.891478

 Total times  cpu:    12933.0s     wall:    12972.4s
