============================== echo of input deck ==============================
start GLN_GLN_3
geometry
H         11.92200        9.58400       -1.87900
C         11.94700        9.11800       -2.86200
H         12.78200        8.42100       -2.91600
H         12.05800        9.88000       -3.63200
C         10.66000        8.36100       -3.09100
O         10.68800        7.15200       -3.29100
N          9.53800        9.07800       -3.06100
H          9.62000       10.07700       -2.94300
C          8.18700        8.56700       -3.32900
H          8.26300        7.75400       -4.05100
C          7.53100        8.04200       -2.02900
H          7.74400        8.73100       -1.21100
H          6.44800        8.01600       -2.15800
C          7.96700        6.62300       -1.62600
H          9.03100        6.61000       -1.39300
H          7.43000        6.33300       -0.72300
C          7.65600        5.60100       -2.71700
O          6.52200        5.19100       -2.91000
N          8.62200        5.21500       -3.51500
H          9.52800        5.67400       -3.45100
H          8.36300        4.67100       -4.31700
C          7.30900        9.63200       -4.00400
O          7.66100       10.81000       -4.05500
N          6.16000        9.19700       -4.52800
H          5.95900        8.21600       -4.39100
C          5.26600        9.92300       -5.44400
H          5.89500       10.43700       -6.17200
C          4.38200        8.91600       -6.22200
H          3.65800        8.47200       -5.53800
H          3.81900        9.47500       -6.97100
C          5.13400        7.78900       -6.96500
H          4.42400        7.26500       -7.60500
H          5.90300        8.22800       -7.60100
C          5.77800        6.75700       -6.03900
O          6.97900        6.56300       -6.03200
N          5.04100        6.17300       -5.12000
H          4.04600        6.29900       -5.08700
H          5.52800        5.58100       -4.44700
C          4.41600       11.02200       -4.75800
O          3.22500       11.15800       -5.01000
N          4.98600       11.80400       -3.85300
H          4.42600       12.51100       -3.40600
H          5.97700       11.71100       -3.67000
end

basis
 * library aug-cc-pvdz
end

echo

scf
 direct
end

task scf energy
================================================================================

 Output coordinates in angstroms (scale by  1.889725989 to convert to a.u.)

  No.       Tag          Charge          X              Y              Z
 ---- ---------------- ---------- -------------- -------------- --------------
    1 H                    1.0000     3.38254283     4.29331014     0.26467240
    2 C                    6.0000     2.74022591     4.12548501     1.12684042
    3 H                    1.0000     2.38849933     5.08093872     1.51329433
    4 H                    1.0000     3.29150133     3.59862771     1.90426038
    5 C                    6.0000     1.54863270     3.29564954     0.71050195
    6 O                    8.0000     0.41530750     3.74540863     0.83602380
    7 N                    7.0000     1.81219372     2.08687090     0.21728518
    8 H                    1.0000     2.77458426     1.78314372     0.20302888
    9 C                    6.0000     0.81222388     1.08661377    -0.17981934
   10 H                    1.0000    -0.06631887     1.20716475     0.45394647
   11 C                    6.0000     0.40778251     1.27352399    -1.66220011
   12 H                    1.0000     1.29758205     1.47939585    -2.25809234
   13 H                    1.0000    -0.02588574     0.34498362    -2.03629988
   14 C                    6.0000    -0.63273782     2.38077712    -1.90172872
   15 H                    1.0000    -0.21695271     3.35050528    -1.63098155
   16 H                    1.0000    -0.87447904     2.41266299    -2.96400104
   17 C                    6.0000    -1.92242502     2.12711846    -1.12465073
   18 O                    8.0000    -2.73718973     1.29207133    -1.48542733
   19 N                    7.0000    -2.11891897     2.77052145     0.00068420
   20 H                    1.0000    -1.36970078     3.34768085     0.37641301
   21 H                    1.0000    -2.88961655     2.47258828     0.56943904
   22 C                    6.0000     1.31330213    -0.34169657     0.08396878
   23 O                    8.0000     2.49356489    -0.56429601     0.35158477
   24 N                    7.0000     0.39369342    -1.30754519     0.01008886
   25 H                    1.0000    -0.53489153    -1.00971071    -0.25553420
   26 C                    6.0000     0.52565648    -2.70135154     0.46314252
   27 H                    1.0000     1.04353686    -2.68304738     1.42297889
   28 C                    6.0000    -0.87881676    -3.30979651     0.70405464
   29 H                    1.0000    -1.37676582    -3.45245378    -0.25556176
   30 H                    1.0000    -0.74336554    -4.29709443     1.14829196
   31 C                    6.0000    -1.80980510    -2.51135304     1.64396460
   32 H                    1.0000    -2.68301554    -3.12481040     1.86633727
   33 H                    1.0000    -1.28944548    -2.31096774     2.58079414
   34 C                    6.0000    -2.30476342    -1.19117041     1.05288923
   35 O                    8.0000    -2.05758626    -0.12143553     1.57696626
   36 N                    7.0000    -2.87967161    -1.19453016    -0.12958922
   37 H                    1.0000    -3.10693628    -2.05117316    -0.60023084
   38 H                    1.0000    -3.08938898    -0.28545500    -0.54209739
   39 C                    6.0000     1.38360689    -3.59076667    -0.47160815
   40 O                    8.0000     1.03040641    -4.72350643    -0.77596163
   41 N                    7.0000     2.50328012    -3.09673072    -0.97925897
   42 H                    1.0000     3.05190389    -3.67751156    -1.59160165
   43 H                    1.0000     2.80925884    -2.17301641    -0.70114406

         Total SCF energy =  -1113.484843128027

 Vector  144  Occ=0.000000D+00  E= 2.278034D-01

 Vector  145  Occ=0.000000D+00  E= 2.307148D-01

 Vector  146  Occ=0.000000D+00  E= 2.325804D-01

 Vector  147  Occ=0.000000D+00  E= 2.381746D-01

 Vector  148  Occ=0.000000D+00  E= 2.394171D-01

 Vector  149  Occ=0.000000D+00  E= 2.431771D-01

 Vector  150  Occ=0.000000D+00  E= 2.512129D-01

 Vector  151  Occ=0.000000D+00  E= 2.544555D-01

 Vector  152  Occ=0.000000D+00  E= 2.579697D-01

 Vector  153  Occ=0.000000D+00  E= 2.627168D-01

 Vector  154  Occ=0.000000D+00  E= 2.657764D-01

 Vector  155  Occ=0.000000D+00  E= 2.680995D-01

 Vector  156  Occ=0.000000D+00  E= 2.707130D-01

 Vector  157  Occ=0.000000D+00  E= 2.750187D-01

 Vector  158  Occ=0.000000D+00  E= 2.793934D-01

 Vector  159  Occ=0.000000D+00  E= 2.842992D-01

 Vector  160  Occ=0.000000D+00  E= 2.896992D-01

 Vector  161  Occ=0.000000D+00  E= 2.942178D-01

 Vector  162  Occ=0.000000D+00  E= 2.957758D-01

 Vector  163  Occ=0.000000D+00  E= 2.990188D-01

 Vector  164  Occ=0.000000D+00  E= 3.078206D-01

 Vector  165  Occ=0.000000D+00  E= 3.143005D-01

 Vector  166  Occ=0.000000D+00  E= 3.186381D-01

 Vector  167  Occ=0.000000D+00  E= 3.214997D-01

 Vector  168  Occ=0.000000D+00  E= 3.233271D-01

 Vector  169  Occ=0.000000D+00  E= 3.270340D-01

 Vector  170  Occ=0.000000D+00  E= 3.321987D-01

 Vector  171  Occ=0.000000D+00  E= 3.329799D-01

 Vector  172  Occ=0.000000D+00  E= 3.395990D-01

 Vector  173  Occ=0.000000D+00  E= 3.406615D-01

 Vector  174  Occ=0.000000D+00  E= 3.417889D-01

 Vector  175  Occ=0.000000D+00  E= 3.439500D-01

 Vector  176  Occ=0.000000D+00  E= 3.462333D-01

 Vector  177  Occ=0.000000D+00  E= 3.535761D-01

 Vector  178  Occ=0.000000D+00  E= 3.573542D-01

 Vector  179  Occ=0.000000D+00  E= 3.618743D-01

 Vector  180  Occ=0.000000D+00  E= 3.641186D-01

 Vector  181  Occ=0.000000D+00  E= 3.662289D-01

 Vector  182  Occ=0.000000D+00  E= 3.688765D-01

 Vector  183  Occ=0.000000D+00  E= 3.700868D-01

 Vector  184  Occ=0.000000D+00  E= 3.740631D-01

 Vector  185  Occ=0.000000D+00  E= 3.772780D-01

 Vector  186  Occ=0.000000D+00  E= 3.807364D-01

 Vector  187  Occ=0.000000D+00  E= 3.821909D-01

 Vector  188  Occ=0.000000D+00  E= 3.866602D-01

 Vector  189  Occ=0.000000D+00  E= 3.899314D-01

 Vector  190  Occ=0.000000D+00  E= 3.938145D-01

 Vector  191  Occ=0.000000D+00  E= 3.949989D-01

 Vector  192  Occ=0.000000D+00  E= 3.987469D-01

 Vector  193  Occ=0.000000D+00  E= 4.008023D-01

 Vector  194  Occ=0.000000D+00  E= 4.033481D-01

 Vector  195  Occ=0.000000D+00  E= 4.064823D-01

 Vector  196  Occ=0.000000D+00  E= 4.108608D-01

 Vector  197  Occ=0.000000D+00  E= 4.124358D-01

 Vector  198  Occ=0.000000D+00  E= 4.167835D-01

 Vector  199  Occ=0.000000D+00  E= 4.187563D-01

 Vector  200  Occ=0.000000D+00  E= 4.223246D-01

 Vector  201  Occ=0.000000D+00  E= 4.263662D-01

 Vector  202  Occ=0.000000D+00  E= 4.269449D-01

 Vector  203  Occ=0.000000D+00  E= 4.326267D-01

 Vector  204  Occ=0.000000D+00  E= 4.359109D-01

 Vector  205  Occ=0.000000D+00  E= 4.369277D-01

 Vector  206  Occ=0.000000D+00  E= 4.400145D-01

 Vector  207  Occ=0.000000D+00  E= 4.428974D-01

 Vector  208  Occ=0.000000D+00  E= 4.468065D-01

 Vector  209  Occ=0.000000D+00  E= 4.506238D-01

 Vector  210  Occ=0.000000D+00  E= 4.537960D-01

 Vector  211  Occ=0.000000D+00  E= 4.553700D-01

 Vector  212  Occ=0.000000D+00  E= 4.557754D-01

 Vector  213  Occ=0.000000D+00  E= 4.624672D-01

 Vector  214  Occ=0.000000D+00  E= 4.665611D-01

 Vector  215  Occ=0.000000D+00  E= 4.717737D-01

 Vector  216  Occ=0.000000D+00  E= 4.753254D-01

 Vector  217  Occ=0.000000D+00  E= 4.767239D-01

 Vector  218  Occ=0.000000D+00  E= 4.783430D-01

 Vector  219  Occ=0.000000D+00  E= 4.818076D-01

 Vector  220  Occ=0.000000D+00  E= 4.876526D-01

 Vector  221  Occ=0.000000D+00  E= 4.923798D-01

 Vector  222  Occ=0.000000D+00  E= 4.963214D-01

 Vector  223  Occ=0.000000D+00  E= 5.034123D-01

       Multipole analysis of the density wrt the origin
       ------------------------------------------------

     L   x y z        total         open         nuclear
     -   - - -        -----         ----         -------
     0   0 0 0     -0.000000      0.000000    168.000000

     1   1 0 0      1.075477      0.000000     -0.000000
     1   0 1 0      0.666663      0.000000      0.000000
     1   0 0 1     -0.177225      0.000000      0.000000

     2   2 0 0    -93.864787      0.000000   2060.349951
     2   1 1 0     15.258774      0.000000     66.782314
     2   1 0 1     -3.666904      0.000000     -2.260309
     2   0 2 0   -107.649264      0.000000   4049.507018
     2   0 1 1     -6.027246      0.000000    -14.249406

 Total times  cpu:    21375.6s     wall:    21452.5s
