============================== echo of input deck ==============================
start GLN_CYS_5
geometry
H         18.31000        5.50700        0.91600
C         18.63500        4.92300        1.77500
H         19.64100        5.22000        2.06600
H         18.62400        3.86400        1.52200
C         17.68800        5.16100        2.92700
O         17.05000        4.23200        3.40300
N         17.60100        6.41300        3.37200
H         18.21100        7.10500        2.95400
C         16.78400        6.84400        4.51900
H         16.02600        6.08100        4.70500
C         17.66700        6.92200        5.78600
H         17.09700        7.39400        6.58700
H         17.88100        5.90300        6.11300
C         19.01700        7.65600        5.64300
H         19.40500        7.88100        6.63600
H         19.72700        6.98600        5.15700
C         18.94800        8.93700        4.82000
O         19.09800        8.92500        3.60900
N         18.67700       10.07600        5.41600
H         18.63600       10.89200        4.82900
H         18.48500       10.10600        6.40100
C         15.98700        8.14200        4.25900
O         15.40200        8.70700        5.18000
N         15.96700        8.63600        3.01800
H         16.44400        8.12500        2.28800
C         15.21500        9.81700        2.59200
H         14.24100        9.80100        3.08400
C         15.96200       11.08600        3.04300
H         15.33700       11.95900        2.85500
H         16.15000       11.03100        4.11700
S         17.53600       11.29800        2.16100
H         18.14300       10.18000        2.59800
C         14.96600        9.78100        1.07100
O         15.48500        8.92500        0.36200
N         14.15600       10.69100        0.54500
H         14.00300       10.66300       -0.45000
H         13.73500       11.39800        1.12200
end

basis
 * library aug-cc-pvdz
end

echo

scf
 direct
end

task scf energy
================================================================================

 Output coordinates in angstroms (scale by  1.889725989 to convert to a.u.)

  No.       Tag          Charge          X              Y              Z
 ---- ---------------- ---------- -------------- -------------- --------------
    1 H                    1.0000    -2.71821002     1.94119173     2.20533547
    2 C                    6.0000    -2.32603344     2.90863590     1.89742103
    3 H                    1.0000    -1.50299610     3.19909035     2.54793756
    4 H                    1.0000    -3.11593322     3.65628426     1.94929861
    5 C                    6.0000    -1.83215096     2.81623447     0.47330760
    6 O                    8.0000    -2.33394063     3.51085735    -0.39982880
    7 N                    7.0000    -0.84421560     1.95316175     0.24486240
    8 H                    1.0000    -0.45281674     1.46377082     1.04047000
    9 C                    6.0000    -0.18342712     1.75497116    -1.05626713
   10 H                    1.0000    -0.84028560     2.14407297    -1.83630926
   11 C                    6.0000     1.12068754     2.58419435    -1.10857268
   12 H                    1.0000     1.68138345     2.30734329    -2.00202586
   13 H                    1.0000     0.84949950     3.63515191    -1.22272721
   14 C                    6.0000     2.05676851     2.47722326     0.11372622
   15 H                    1.0000     3.03669435     2.87072749    -0.15482131
   16 H                    1.0000     1.65862080     3.10419962     0.91220918
   17 C                    6.0000     2.20788612     1.06377738     0.66362186
   18 O                    8.0000     1.44555810     0.62428708     1.50912127
   19 N                    7.0000     3.15010824     0.28119304     0.18848268
   20 H                    1.0000     3.20505927    -0.64440905     0.57879942
   21 H                    1.0000     3.75034153     0.59381821    -0.55311997
   22 C                    6.0000     0.03206255     0.26916440    -1.42171960
   23 O                    8.0000     0.72138258    -0.03863777    -2.39114557
   24 N                    7.0000    -0.53436378    -0.66232096    -0.64970066
   25 H                    1.0000    -1.11129515    -0.36171769     0.12382237
   26 C                    6.0000    -0.47913213    -2.10490687    -0.88977638
   27 H                    1.0000    -0.59297378    -2.28035763    -1.96087539
   28 C                    6.0000     0.89856652    -2.64042234    -0.45741009
   29 H                    1.0000     0.99448567    -3.68140766    -0.76603135
   30 H                    1.0000     1.68132885    -2.06700541    -0.95773115
   31 S                   16.0000     1.13121704    -2.54444394     1.34175802
   32 H                    1.0000     1.05458389    -1.20721465     1.46539938
   33 C                    6.0000    -1.64583549    -2.81762496    -0.17733396
   34 O                    8.0000    -2.38927293    -2.21136645     0.58721126
   35 N                    7.0000    -1.84157006    -4.10615803    -0.42682643
   36 H                    1.0000    -2.60291707    -4.56477458     0.04671301
   37 H                    1.0000    -1.22992338    -4.60739370    -1.04704424

         Total SCF energy =  -1304.156370082073

 Vector  124  Occ=0.000000D+00  E= 1.986776D-01

 Vector  125  Occ=0.000000D+00  E= 2.018805D-01

 Vector  126  Occ=0.000000D+00  E= 2.055151D-01

 Vector  127  Occ=0.000000D+00  E= 2.071653D-01

 Vector  128  Occ=0.000000D+00  E= 2.148880D-01

 Vector  129  Occ=0.000000D+00  E= 2.181287D-01

 Vector  130  Occ=0.000000D+00  E= 2.220779D-01

 Vector  131  Occ=0.000000D+00  E= 2.234346D-01

 Vector  132  Occ=0.000000D+00  E= 2.242069D-01

 Vector  133  Occ=0.000000D+00  E= 2.305995D-01

 Vector  134  Occ=0.000000D+00  E= 2.335283D-01

 Vector  135  Occ=0.000000D+00  E= 2.371606D-01

 Vector  136  Occ=0.000000D+00  E= 2.419925D-01

 Vector  137  Occ=0.000000D+00  E= 2.441424D-01

 Vector  138  Occ=0.000000D+00  E= 2.475845D-01

 Vector  139  Occ=0.000000D+00  E= 2.522220D-01

 Vector  140  Occ=0.000000D+00  E= 2.597899D-01

 Vector  141  Occ=0.000000D+00  E= 2.636530D-01

 Vector  142  Occ=0.000000D+00  E= 2.678423D-01

 Vector  143  Occ=0.000000D+00  E= 2.706471D-01

 Vector  144  Occ=0.000000D+00  E= 2.769736D-01

 Vector  145  Occ=0.000000D+00  E= 2.802741D-01

 Vector  146  Occ=0.000000D+00  E= 2.853114D-01

 Vector  147  Occ=0.000000D+00  E= 2.947983D-01

 Vector  148  Occ=0.000000D+00  E= 2.969236D-01

 Vector  149  Occ=0.000000D+00  E= 3.044693D-01

 Vector  150  Occ=0.000000D+00  E= 3.059655D-01

 Vector  151  Occ=0.000000D+00  E= 3.109897D-01

 Vector  152  Occ=0.000000D+00  E= 3.138064D-01

 Vector  153  Occ=0.000000D+00  E= 3.202029D-01

 Vector  154  Occ=0.000000D+00  E= 3.246510D-01

 Vector  155  Occ=0.000000D+00  E= 3.322295D-01

 Vector  156  Occ=0.000000D+00  E= 3.356033D-01

 Vector  157  Occ=0.000000D+00  E= 3.377108D-01

 Vector  158  Occ=0.000000D+00  E= 3.410232D-01

 Vector  159  Occ=0.000000D+00  E= 3.446396D-01

 Vector  160  Occ=0.000000D+00  E= 3.478067D-01

 Vector  161  Occ=0.000000D+00  E= 3.507313D-01

 Vector  162  Occ=0.000000D+00  E= 3.528898D-01

 Vector  163  Occ=0.000000D+00  E= 3.553123D-01

 Vector  164  Occ=0.000000D+00  E= 3.592868D-01

 Vector  165  Occ=0.000000D+00  E= 3.652875D-01

 Vector  166  Occ=0.000000D+00  E= 3.715499D-01

 Vector  167  Occ=0.000000D+00  E= 3.735462D-01

 Vector  168  Occ=0.000000D+00  E= 3.759121D-01

 Vector  169  Occ=0.000000D+00  E= 3.816387D-01

 Vector  170  Occ=0.000000D+00  E= 3.829613D-01

 Vector  171  Occ=0.000000D+00  E= 3.878530D-01

 Vector  172  Occ=0.000000D+00  E= 3.891455D-01

 Vector  173  Occ=0.000000D+00  E= 3.912239D-01

 Vector  174  Occ=0.000000D+00  E= 3.936062D-01

 Vector  175  Occ=0.000000D+00  E= 3.975159D-01

 Vector  176  Occ=0.000000D+00  E= 3.989421D-01

 Vector  177  Occ=0.000000D+00  E= 4.058344D-01

 Vector  178  Occ=0.000000D+00  E= 4.088886D-01

 Vector  179  Occ=0.000000D+00  E= 4.129543D-01

 Vector  180  Occ=0.000000D+00  E= 4.147098D-01

 Vector  181  Occ=0.000000D+00  E= 4.176780D-01

 Vector  182  Occ=0.000000D+00  E= 4.238162D-01

 Vector  183  Occ=0.000000D+00  E= 4.258885D-01

 Vector  184  Occ=0.000000D+00  E= 4.304452D-01

 Vector  185  Occ=0.000000D+00  E= 4.346039D-01

 Vector  186  Occ=0.000000D+00  E= 4.376924D-01

 Vector  187  Occ=0.000000D+00  E= 4.408108D-01

 Vector  188  Occ=0.000000D+00  E= 4.441859D-01

 Vector  189  Occ=0.000000D+00  E= 4.489831D-01

 Vector  190  Occ=0.000000D+00  E= 4.498629D-01

 Vector  191  Occ=0.000000D+00  E= 4.559483D-01

 Vector  192  Occ=0.000000D+00  E= 4.644523D-01

 Vector  193  Occ=0.000000D+00  E= 4.695853D-01

 Vector  194  Occ=0.000000D+00  E= 4.741472D-01

 Vector  195  Occ=0.000000D+00  E= 4.751924D-01

 Vector  196  Occ=0.000000D+00  E= 4.780511D-01

 Vector  197  Occ=0.000000D+00  E= 4.811996D-01

 Vector  198  Occ=0.000000D+00  E= 4.858071D-01

 Vector  199  Occ=0.000000D+00  E= 4.894879D-01

 Vector  200  Occ=0.000000D+00  E= 4.901233D-01

 Vector  201  Occ=0.000000D+00  E= 4.938796D-01

 Vector  202  Occ=0.000000D+00  E= 4.980325D-01

 Vector  203  Occ=0.000000D+00  E= 5.030131D-01

       Multipole analysis of the density wrt the origin
       ------------------------------------------------

     L   x y z        total         open         nuclear
     -   - - -        -----         ----         -------
     0   0 0 0      0.000000      0.000000    154.000000

     1   1 0 0      1.861994      0.000000      0.000000
     1   0 1 0     -1.134963      0.000000     -0.000000
     1   0 0 1     -0.263673      0.000000      0.000000

     2   2 0 0    -88.652323      0.000000   1582.597332
     2   1 1 0     13.724423      0.000000     14.000808
     2   1 0 1     -3.495247      0.000000    -30.115806
     2   0 2 0    -79.913261      0.000000   3027.406429
     2   0 1 1     12.421463      0.000000     38.495093

 Total times  cpu:    13736.1s     wall:    13777.7s
