============================== echo of input deck ==============================
start GLN_CYS_3
geometry
H          5.92800        1.58300       -5.69400
C          6.58700        2.20400       -5.09000
H          7.29100        1.57500       -4.54900
H          5.99700        2.78700       -4.38400
C          7.35300        3.14200       -5.99100
O          8.57800        3.10200       -6.03200
N          6.63300        3.99900       -6.71300
H          5.62600        3.99400       -6.60100
C          7.22500        5.00600       -7.60000
H          7.80500        4.46500       -8.35000
C          6.12000        5.77600       -8.35600
H          6.59300        6.33900       -9.16200
H          5.45000        5.05000       -8.82000
C          5.27400        6.76300       -7.52900
H          5.89200        7.60800       -7.22600
H          4.47900        7.15800       -8.16100
C          4.63100        6.13000       -6.29800
O          3.84000        5.20600       -6.38600
N          5.00000        6.53400       -5.10600
H          5.83300        7.10100       -5.02400
H          4.57700        6.07800       -4.32000
C          8.19500        5.93300       -6.84000
O          7.82500        6.56500       -5.84900
N          9.44500        5.99900       -7.30800
H          9.66500        5.46500       -8.13200
C         10.55200        6.73200       -6.67300
H         11.45400        6.47900       -7.23000
C         10.35000        8.24800       -6.84000
H          9.46700        8.56000       -6.28000
H         11.21800        8.77100       -6.43400
S         10.15100        8.67500       -8.59800
H         10.04300        9.99900       -8.43000
C         10.86800        6.31800       -5.21500
O         11.55200        7.04200       -4.50100
N         10.41600        5.16100       -4.74300
H         10.63000        4.91900       -3.79100
H          9.84000        4.55800       -5.31600
end

basis
 * library aug-cc-pvdz
end

echo

scf
 direct
end

task scf energy
================================================================================

 Output coordinates in angstroms (scale by  1.889725989 to convert to a.u.)

  No.       Tag          Charge          X              Y              Z
 ---- ---------------- ---------- -------------- -------------- --------------
    1 H                    1.0000     2.57374759    -3.97753800    -1.08314825
    2 C                    6.0000     2.75432348    -3.15071534    -0.39868157
    3 H                    1.0000     3.80844697    -2.88161613    -0.41731741
    4 H                    1.0000     2.46655937    -3.44043671     0.61110967
    5 C                    6.0000     1.93212784    -1.95958851    -0.82718153
    6 O                    8.0000     2.47872819    -0.90634841    -1.13672855
    7 N                    7.0000     0.60974453    -2.11863609    -0.83898094
    8 H                    1.0000     0.23024089    -3.00883669    -0.53875122
    9 C                    6.0000    -0.33060209    -1.04726302    -1.18421995
   10 H                    1.0000    -0.10120746    -0.74258770    -2.20702592
   11 C                    6.0000    -1.77971524    -1.58159490    -1.18886063
   12 H                    1.0000    -2.41270079    -0.83427294    -1.66966534
   13 H                    1.0000    -1.81381570    -2.47958338    -1.80831673
   14 C                    6.0000    -2.40122478    -1.90973011     0.18222185
   15 H                    1.0000    -2.56286042    -0.98717555     0.73946954
   16 H                    1.0000    -3.37910565    -2.36379724     0.02396244
   17 C                    6.0000    -1.56062639    -2.87254447     1.01641720
   18 O                    8.0000    -1.30138752    -4.00104408     0.63368382
   19 N                    7.0000    -1.03162070    -2.44955698     2.13957149
   20 H                    1.0000    -1.02193801    -1.45584271     2.32542138
   21 H                    1.0000    -0.46355893    -3.10013619     2.64821038
   22 C                    6.0000    -0.14471402     0.18612708    -0.27756484
   23 O                    8.0000    -0.21401953     0.08964351     0.94893125
   24 N                    7.0000     0.10360221     1.34578498    -0.89352961
   25 H                    1.0000     0.12858697     1.34540782    -1.89946580
   26 C                    6.0000     0.41930433     2.61515832    -0.21900274
   27 H                    1.0000     0.69193228     3.32442752    -1.00033059
   28 C                    6.0000    -0.83858630     3.18200635     0.46169063
   29 H                    1.0000    -1.14310830     2.51749840     1.27183170
   30 H                    1.0000    -0.60463850     4.15962553     0.88750533
   31 S                   16.0000    -2.19321635     3.35205897    -0.74186807
   32 H                    1.0000    -3.08961035     3.88217642     0.09974781
   33 C                    6.0000     1.65193319     2.57706479     0.71704799
   34 O                    8.0000     1.83063441     3.46666757     1.54075957
   35 N                    7.0000     2.53323190     1.58826815     0.61060186
   36 H                    1.0000     3.32133620     1.58372663     1.23472923
   37 H                    1.0000     2.39348537     0.84012715    -0.05608394

         Total SCF energy =  -1304.163407548647

 Vector  124  Occ=0.000000D+00  E= 1.965722D-01

 Vector  125  Occ=0.000000D+00  E= 1.997837D-01

 Vector  126  Occ=0.000000D+00  E= 2.004393D-01

 Vector  127  Occ=0.000000D+00  E= 2.035754D-01

 Vector  128  Occ=0.000000D+00  E= 2.055235D-01

 Vector  129  Occ=0.000000D+00  E= 2.100849D-01

 Vector  130  Occ=0.000000D+00  E= 2.143128D-01

 Vector  131  Occ=0.000000D+00  E= 2.161540D-01

 Vector  132  Occ=0.000000D+00  E= 2.230817D-01

 Vector  133  Occ=0.000000D+00  E= 2.259114D-01

 Vector  134  Occ=0.000000D+00  E= 2.286103D-01

 Vector  135  Occ=0.000000D+00  E= 2.342544D-01

 Vector  136  Occ=0.000000D+00  E= 2.380179D-01

 Vector  137  Occ=0.000000D+00  E= 2.393454D-01

 Vector  138  Occ=0.000000D+00  E= 2.511832D-01

 Vector  139  Occ=0.000000D+00  E= 2.541440D-01

 Vector  140  Occ=0.000000D+00  E= 2.603522D-01

 Vector  141  Occ=0.000000D+00  E= 2.645101D-01

 Vector  142  Occ=0.000000D+00  E= 2.660136D-01

 Vector  143  Occ=0.000000D+00  E= 2.710651D-01

 Vector  144  Occ=0.000000D+00  E= 2.761437D-01

 Vector  145  Occ=0.000000D+00  E= 2.811828D-01

 Vector  146  Occ=0.000000D+00  E= 2.875211D-01

 Vector  147  Occ=0.000000D+00  E= 2.920723D-01

 Vector  148  Occ=0.000000D+00  E= 2.967022D-01

 Vector  149  Occ=0.000000D+00  E= 3.008449D-01

 Vector  150  Occ=0.000000D+00  E= 3.033391D-01

 Vector  151  Occ=0.000000D+00  E= 3.124120D-01

 Vector  152  Occ=0.000000D+00  E= 3.136576D-01

 Vector  153  Occ=0.000000D+00  E= 3.196731D-01

 Vector  154  Occ=0.000000D+00  E= 3.210603D-01

 Vector  155  Occ=0.000000D+00  E= 3.256868D-01

 Vector  156  Occ=0.000000D+00  E= 3.302928D-01

 Vector  157  Occ=0.000000D+00  E= 3.350096D-01

 Vector  158  Occ=0.000000D+00  E= 3.382636D-01

 Vector  159  Occ=0.000000D+00  E= 3.428043D-01

 Vector  160  Occ=0.000000D+00  E= 3.457463D-01

 Vector  161  Occ=0.000000D+00  E= 3.494253D-01

 Vector  162  Occ=0.000000D+00  E= 3.511984D-01

 Vector  163  Occ=0.000000D+00  E= 3.577569D-01

 Vector  164  Occ=0.000000D+00  E= 3.589189D-01

 Vector  165  Occ=0.000000D+00  E= 3.622845D-01

 Vector  166  Occ=0.000000D+00  E= 3.647714D-01

 Vector  167  Occ=0.000000D+00  E= 3.694483D-01

 Vector  168  Occ=0.000000D+00  E= 3.727619D-01

 Vector  169  Occ=0.000000D+00  E= 3.758941D-01

 Vector  170  Occ=0.000000D+00  E= 3.783117D-01

 Vector  171  Occ=0.000000D+00  E= 3.837430D-01

 Vector  172  Occ=0.000000D+00  E= 3.874393D-01

 Vector  173  Occ=0.000000D+00  E= 3.893686D-01

 Vector  174  Occ=0.000000D+00  E= 3.946538D-01

 Vector  175  Occ=0.000000D+00  E= 3.964684D-01

 Vector  176  Occ=0.000000D+00  E= 4.005267D-01

 Vector  177  Occ=0.000000D+00  E= 4.039006D-01

 Vector  178  Occ=0.000000D+00  E= 4.070278D-01

 Vector  179  Occ=0.000000D+00  E= 4.093303D-01

 Vector  180  Occ=0.000000D+00  E= 4.113949D-01

 Vector  181  Occ=0.000000D+00  E= 4.164325D-01

 Vector  182  Occ=0.000000D+00  E= 4.208685D-01

 Vector  183  Occ=0.000000D+00  E= 4.243248D-01

 Vector  184  Occ=0.000000D+00  E= 4.271568D-01

 Vector  185  Occ=0.000000D+00  E= 4.315412D-01

 Vector  186  Occ=0.000000D+00  E= 4.351581D-01

 Vector  187  Occ=0.000000D+00  E= 4.374681D-01

 Vector  188  Occ=0.000000D+00  E= 4.420855D-01

 Vector  189  Occ=0.000000D+00  E= 4.480374D-01

 Vector  190  Occ=0.000000D+00  E= 4.531996D-01

 Vector  191  Occ=0.000000D+00  E= 4.565817D-01

 Vector  192  Occ=0.000000D+00  E= 4.586455D-01

 Vector  193  Occ=0.000000D+00  E= 4.606511D-01

 Vector  194  Occ=0.000000D+00  E= 4.683908D-01

 Vector  195  Occ=0.000000D+00  E= 4.725958D-01

 Vector  196  Occ=0.000000D+00  E= 4.754397D-01

 Vector  197  Occ=0.000000D+00  E= 4.811074D-01

 Vector  198  Occ=0.000000D+00  E= 4.829125D-01

 Vector  199  Occ=0.000000D+00  E= 4.885539D-01

 Vector  200  Occ=0.000000D+00  E= 4.937141D-01

 Vector  201  Occ=0.000000D+00  E= 4.965422D-01

 Vector  202  Occ=0.000000D+00  E= 4.985382D-01

 Vector  203  Occ=0.000000D+00  E= 5.038086D-01

       Multipole analysis of the density wrt the origin
       ------------------------------------------------

     L   x y z        total         open         nuclear
     -   - - -        -----         ----         -------
     0   0 0 0      0.000000      0.000000    154.000000

     1   1 0 0     -0.666098      0.000000      0.000000
     1   0 1 0     -0.801536      0.000000     -0.000000
     1   0 0 1     -0.811632      0.000000      0.000000

     2   2 0 0    -88.372331      0.000000   1658.950287
     2   1 1 0    -12.105532      0.000000    -32.162760
     2   1 0 1     -0.692055      0.000000     -0.466095
     2   0 2 0   -106.289673      0.000000   3418.572700
     2   0 1 1     -4.870469      0.000000      6.120223

 Total times  cpu:    13539.8s     wall:    13581.7s
