============================== echo of input deck ==============================
start GLN_CYS_0
geometry
H          7.32200        9.49600       -2.55600
C          7.32900        8.57400       -3.13600
H          8.00500        7.85400       -2.67700
H          7.65900        8.78500       -4.15200
C          5.93400        8.00200       -3.17800
O          5.00700        8.59100       -2.63600
N          5.79200        6.82200       -3.77600
H          6.63300        6.37900       -4.13300
C          4.52000        6.12000       -4.02900
H          3.87700        6.81400       -4.57300
C          4.78900        4.91600       -4.95900
H          3.83700        4.60300       -5.38900
H          5.42300        5.23900       -5.78700
C          5.42500        3.68100       -4.28700
H          4.73500        3.28300       -3.54400
H          5.56500        2.90700       -5.04100
C          6.78000        3.94700       -3.63200
O          7.61700        4.67900       -4.13400
N          7.04300        3.39800       -2.46900
H          7.95200        3.57900       -2.08200
H          6.34200        2.85800       -1.98500
C          3.72000        5.69600       -2.77500
O          2.66400        5.08300       -2.90300
N          4.21100        6.00400       -1.57100
H          5.06500        6.53700       -1.55300
C          3.54100        5.74800       -0.29000
H          2.52300        5.40700       -0.48900
C          4.26900        4.62300        0.46700
H          5.27300        4.95600        0.73300
H          3.72700        4.40800        1.39100
S          4.38000        3.10400       -0.52900
H          3.06200        2.94100       -0.71200
C          3.38400        7.02000        0.57200
O          3.05800        6.93400        1.74900
N          3.63100        8.21000        0.03500
H          3.90400        8.29500       -0.93600
H          3.52300        9.02600        0.61500
end

basis
 * library aug-cc-pvdz
end

echo

scf
 direct
end

task scf energy
================================================================================

 Output coordinates in angstroms (scale by  1.889725989 to convert to a.u.)

  No.       Tag          Charge          X              Y              Z
 ---- ---------------- ---------- -------------- -------------- --------------
    1 H                    1.0000     4.07033235    -0.81328453     1.83237720
    2 C                    6.0000     3.28514949    -1.49903597     1.51651990
    3 H                    1.0000     2.56929726    -1.63864291     2.32529830
    4 H                    1.0000     3.72479885    -2.45926358     1.25128723
    5 C                    6.0000     2.58092368    -0.92787017     0.31119479
    6 O                    8.0000     2.94678347     0.13599442    -0.17290517
    7 N                    7.0000     1.53123477    -1.60770953    -0.14283124
    8 H                    1.0000     1.26218869    -2.44189304     0.36974175
    9 C                    6.0000     0.75494823    -1.30344236    -1.35921839
   10 H                    1.0000     1.46563490    -1.25675942    -2.18611993
   11 C                    6.0000    -0.20800796    -2.47722659    -1.64526553
   12 H                    1.0000    -0.53524462    -2.39954952    -2.68259646
   13 H                    1.0000     0.33803566    -3.41796311    -1.55188371
   14 C                    6.0000    -1.47162063    -2.53607259    -0.76145268
   15 H                    1.0000    -2.08046916    -1.65241578    -0.94855456
   16 H                    1.0000    -2.06398902    -3.40148783    -1.05699989
   17 C                    6.0000    -1.18915418    -2.65147541     0.73611231
   18 O                    8.0000    -0.28526636    -3.33998362     1.18034227
   19 N                    7.0000    -1.92094927    -1.95791988     1.57670476
   20 H                    1.0000    -1.71878763    -2.07777858     2.55321670
   21 H                    1.0000    -2.61910816    -1.31278444     1.23961216
   22 C                    6.0000     0.00928339     0.05163861    -1.36483319
   23 O                    8.0000    -0.68055855     0.36481896    -2.33092075
   24 N                    7.0000     0.13011214     0.85048223    -0.30049759
   25 H                    1.0000     0.74092196     0.53535014     0.43525518
   26 C                    6.0000    -0.44262279     2.19691512    -0.18012247
   27 H                    1.0000    -0.84934950     2.49262761    -1.14931467
   28 C                    6.0000    -1.60532082     2.18404228     0.82815606
   29 H                    1.0000    -1.22096052     1.94889257     1.82144996
   30 H                    1.0000    -2.05453585     3.17933316     0.86512777
   31 S                   16.0000    -2.88001322     0.96876868     0.36993410
   32 H                    1.0000    -3.14966929     1.47512501    -0.84170565
   33 C                    6.0000     0.61225380     3.27119771     0.16459378
   34 O                    8.0000     0.26360517     4.38939551     0.52107495
   35 N                    7.0000     1.90382211     2.96652388     0.09748822
   36 H                    1.0000     2.20559585     2.04504159    -0.19302512
   37 H                    1.0000     2.57447832     3.68169105     0.32700109

         Total SCF energy =  -1304.162485480762

 Vector  124  Occ=0.000000D+00  E= 1.957368D-01

 Vector  125  Occ=0.000000D+00  E= 1.979661D-01

 Vector  126  Occ=0.000000D+00  E= 2.039989D-01

 Vector  127  Occ=0.000000D+00  E= 2.069184D-01

 Vector  128  Occ=0.000000D+00  E= 2.088191D-01

 Vector  129  Occ=0.000000D+00  E= 2.121812D-01

 Vector  130  Occ=0.000000D+00  E= 2.151518D-01

 Vector  131  Occ=0.000000D+00  E= 2.172273D-01

 Vector  132  Occ=0.000000D+00  E= 2.226152D-01

 Vector  133  Occ=0.000000D+00  E= 2.260078D-01

 Vector  134  Occ=0.000000D+00  E= 2.341901D-01

 Vector  135  Occ=0.000000D+00  E= 2.359250D-01

 Vector  136  Occ=0.000000D+00  E= 2.384097D-01

 Vector  137  Occ=0.000000D+00  E= 2.429290D-01

 Vector  138  Occ=0.000000D+00  E= 2.489983D-01

 Vector  139  Occ=0.000000D+00  E= 2.514091D-01

 Vector  140  Occ=0.000000D+00  E= 2.555457D-01

 Vector  141  Occ=0.000000D+00  E= 2.625246D-01

 Vector  142  Occ=0.000000D+00  E= 2.652113D-01

 Vector  143  Occ=0.000000D+00  E= 2.698623D-01

 Vector  144  Occ=0.000000D+00  E= 2.788428D-01

 Vector  145  Occ=0.000000D+00  E= 2.800268D-01

 Vector  146  Occ=0.000000D+00  E= 2.859973D-01

 Vector  147  Occ=0.000000D+00  E= 2.905126D-01

 Vector  148  Occ=0.000000D+00  E= 2.949492D-01

 Vector  149  Occ=0.000000D+00  E= 2.986928D-01

 Vector  150  Occ=0.000000D+00  E= 3.065205D-01

 Vector  151  Occ=0.000000D+00  E= 3.084759D-01

 Vector  152  Occ=0.000000D+00  E= 3.149351D-01

 Vector  153  Occ=0.000000D+00  E= 3.155364D-01

 Vector  154  Occ=0.000000D+00  E= 3.203010D-01

 Vector  155  Occ=0.000000D+00  E= 3.231268D-01

 Vector  156  Occ=0.000000D+00  E= 3.263244D-01

 Vector  157  Occ=0.000000D+00  E= 3.358339D-01

 Vector  158  Occ=0.000000D+00  E= 3.399645D-01

 Vector  159  Occ=0.000000D+00  E= 3.433251D-01

 Vector  160  Occ=0.000000D+00  E= 3.454713D-01

 Vector  161  Occ=0.000000D+00  E= 3.481217D-01

 Vector  162  Occ=0.000000D+00  E= 3.508718D-01

 Vector  163  Occ=0.000000D+00  E= 3.516041D-01

 Vector  164  Occ=0.000000D+00  E= 3.599313D-01

 Vector  165  Occ=0.000000D+00  E= 3.636611D-01

 Vector  166  Occ=0.000000D+00  E= 3.664710D-01

 Vector  167  Occ=0.000000D+00  E= 3.677222D-01

 Vector  168  Occ=0.000000D+00  E= 3.732625D-01

 Vector  169  Occ=0.000000D+00  E= 3.744167D-01

 Vector  170  Occ=0.000000D+00  E= 3.798840D-01

 Vector  171  Occ=0.000000D+00  E= 3.853665D-01

 Vector  172  Occ=0.000000D+00  E= 3.867513D-01

 Vector  173  Occ=0.000000D+00  E= 3.904932D-01

 Vector  174  Occ=0.000000D+00  E= 3.922571D-01

 Vector  175  Occ=0.000000D+00  E= 3.994001D-01

 Vector  176  Occ=0.000000D+00  E= 4.020208D-01

 Vector  177  Occ=0.000000D+00  E= 4.025956D-01

 Vector  178  Occ=0.000000D+00  E= 4.064816D-01

 Vector  179  Occ=0.000000D+00  E= 4.098554D-01

 Vector  180  Occ=0.000000D+00  E= 4.109962D-01

 Vector  181  Occ=0.000000D+00  E= 4.170131D-01

 Vector  182  Occ=0.000000D+00  E= 4.220515D-01

 Vector  183  Occ=0.000000D+00  E= 4.269272D-01

 Vector  184  Occ=0.000000D+00  E= 4.287505D-01

 Vector  185  Occ=0.000000D+00  E= 4.320462D-01

 Vector  186  Occ=0.000000D+00  E= 4.359181D-01

 Vector  187  Occ=0.000000D+00  E= 4.408223D-01

 Vector  188  Occ=0.000000D+00  E= 4.436022D-01

 Vector  189  Occ=0.000000D+00  E= 4.482933D-01

 Vector  190  Occ=0.000000D+00  E= 4.505185D-01

 Vector  191  Occ=0.000000D+00  E= 4.546136D-01

 Vector  192  Occ=0.000000D+00  E= 4.561116D-01

 Vector  193  Occ=0.000000D+00  E= 4.618499D-01

 Vector  194  Occ=0.000000D+00  E= 4.671278D-01

 Vector  195  Occ=0.000000D+00  E= 4.674680D-01

 Vector  196  Occ=0.000000D+00  E= 4.744070D-01

 Vector  197  Occ=0.000000D+00  E= 4.766897D-01

 Vector  198  Occ=0.000000D+00  E= 4.808552D-01

 Vector  199  Occ=0.000000D+00  E= 4.877129D-01

 Vector  200  Occ=0.000000D+00  E= 4.920688D-01

 Vector  201  Occ=0.000000D+00  E= 4.944563D-01

 Vector  202  Occ=0.000000D+00  E= 4.973567D-01

 Vector  203  Occ=0.000000D+00  E= 5.033484D-01

       Multipole analysis of the density wrt the origin
       ------------------------------------------------

     L   x y z        total         open         nuclear
     -   - - -        -----         ----         -------
     0   0 0 0     -0.000000      0.000000    154.000000

     1   1 0 0     -0.073148      0.000000     -0.000000
     1   0 1 0     -1.690277      0.000000      0.000000
     1   0 0 1      0.753828      0.000000      0.000000

     2   2 0 0    -85.592898      0.000000   1826.861977
     2   1 1 0      0.890256      0.000000     -9.658505
     2   1 0 1      1.509185      0.000000     23.309049
     2   0 2 0   -107.329584      0.000000   2622.840268
     2   0 1 1      2.533546      0.000000     11.725397

 Total times  cpu:    14268.7s     wall:    14315.6s
