============================== echo of input deck ==============================
start GLN_GLN_5
geometry
H          9.30700       10.06500       -1.25600
C          9.67600       10.03500       -2.28000
H         10.34100        9.18300       -2.40800
H         10.21200       10.95700       -2.50400
C          8.50900        9.90300       -3.22800
O          8.29900       10.76000       -4.07500
N          7.72800        8.83800       -3.06400
H          7.94500        8.20100       -2.30500
C          6.53500        8.53800       -3.87100
H          6.81600        8.66200       -4.91800
C          6.14100        7.05800       -3.67300
H          5.48200        6.79900       -4.50200
H          7.02800        6.43000       -3.77000
C          5.39200        6.67900       -2.37600
H          4.58900        7.38900       -2.18300
H          4.91600        5.71500       -2.55600
C          6.25300        6.53300       -1.11600
O          7.26800        7.18200       -0.91000
N          5.87200        5.67900       -0.19500
H          4.96600        5.25300       -0.25900
H          6.41500        5.65900        0.64800
C          5.35000        9.49900       -3.63100
O          4.35900        9.45700       -4.35400
N          5.45000       10.36100       -2.61700
H          6.30000       10.32400       -2.07500
C          4.51200       11.43400       -2.28700
H          4.12400       11.83900       -3.22400
C          3.31700       10.89600       -1.46800
H          2.54100       11.66200       -1.48400
H          2.90700       10.01700       -1.96800
C          3.58000       10.54800        0.01300
H          3.96000       11.42000        0.54400
H          2.62800       10.28100        0.47200
C          4.53400        9.37400        0.20800
O          4.12700        8.22800        0.27700
N          5.82800        9.60600        0.28600
H          6.17400       10.55500        0.20200
H          6.43400        8.79900        0.32500
C          5.25400       12.55800       -1.54700
O          6.16100       12.29900       -0.75800
N          4.86000       13.80800       -1.74600
H          5.34800       14.54400       -1.26100
H          4.11600       14.01000       -2.39400
end

basis
 * library aug-cc-pvdz
end

echo

scf
 direct
end

task scf energy
================================================================================

 Output coordinates in angstroms (scale by  1.889725989 to convert to a.u.)

  No.       Tag          Charge          X              Y              Z
 ---- ---------------- ---------- -------------- -------------- --------------
    1 H                    1.0000     2.16180591    -0.40778655     2.76880993
    2 C                    6.0000     3.09464700    -0.57178083     2.23164107
    3 H                    1.0000     3.45870395    -1.57941453     2.42308263
    4 H                    1.0000     3.83793289     0.15589639     2.55655328
    5 C                    6.0000     2.85536369    -0.40136631     0.75119540
    6 O                    8.0000     3.46136407     0.45331384     0.12013012
    7 N                    7.0000     1.94356354    -1.19955356     0.20110487
    8 H                    1.0000     1.45126288    -1.84784122     0.80633389
    9 C                    6.0000     1.55397511    -1.17866571    -1.21744459
   10 H                    1.0000     2.47449068    -1.17097990    -1.80322443
   11 C                    6.0000     0.80103017    -2.48231330    -1.56156213
   12 H                    1.0000     0.81729396    -2.57223201    -2.64795668
   13 H                    1.0000     1.35492749    -3.33618217    -1.16828397
   14 C                    6.0000    -0.67785052    -2.59589453    -1.12928652
   15 H                    1.0000    -1.21616942    -1.68386193    -1.38338748
   16 H                    1.0000    -1.12124649    -3.39326228    -1.72584052
   17 C                    6.0000    -0.92728686    -2.93768249     0.34421255
   18 O                    8.0000    -0.18804418    -2.59261520     1.25432838
   19 N                    7.0000    -2.00410171    -3.62176183     0.65279514
   20 H                    1.0000    -2.70780870    -3.77893521    -0.04470111
   21 H                    1.0000    -2.17675158    -3.76664703     1.63008645
   22 C                    6.0000     0.76918666     0.08259121    -1.64015495
   23 O                    8.0000     0.52797694     0.29711814    -2.82437202
   24 N                    7.0000     0.36976865     0.91333073    -0.67497253
   25 H                    1.0000     0.61142606     0.65682200     0.27024595
   26 C                    6.0000    -0.27200722     2.21572803    -0.85374054
   27 H                    1.0000     0.16210702     2.68371669    -1.73978199
   28 C                    6.0000    -1.79094946     2.05950861    -1.09173208
   29 H                    1.0000    -2.15913431     3.01120083    -1.47632258
   30 H                    1.0000    -1.95638747     1.31524995    -1.87240506
   31 C                    6.0000    -2.66038945     1.69816152     0.13184317
   32 H                    1.0000    -2.53847707     2.44506680     0.91543417
   33 H                    1.0000    -3.70559776     1.72273523    -0.17671756
   34 C                    6.0000    -2.37690990     0.31074383     0.69852519
   35 O                    8.0000    -2.97717150    -0.67280595     0.30350388
   36 N                    7.0000    -1.44958934     0.17360853     1.62351950
   37 H                    1.0000    -0.92837456     0.98473733     1.93621462
   38 H                    1.0000    -1.22759559    -0.76912581     1.90983530
   39 C                    6.0000     0.02882966     3.10963048     0.35950946
   40 O                    8.0000     0.09715707     2.63185501     1.49057664
   41 N                    7.0000     0.16596867     4.41310913     0.16083052
   42 H                    1.0000     0.36419140     4.99785651     0.95697325
   43 H                    1.0000     0.10803944     4.79496610    -0.76926273

         Total SCF energy =  -1113.484764775734

 Vector  143  Occ=0.000000D+00  E= 2.261014D-01

 Vector  144  Occ=0.000000D+00  E= 2.284967D-01

 Vector  145  Occ=0.000000D+00  E= 2.308126D-01

 Vector  146  Occ=0.000000D+00  E= 2.354057D-01

 Vector  147  Occ=0.000000D+00  E= 2.383645D-01

 Vector  148  Occ=0.000000D+00  E= 2.422809D-01

 Vector  149  Occ=0.000000D+00  E= 2.448742D-01

 Vector  150  Occ=0.000000D+00  E= 2.474780D-01

 Vector  151  Occ=0.000000D+00  E= 2.532695D-01

 Vector  152  Occ=0.000000D+00  E= 2.646432D-01

 Vector  153  Occ=0.000000D+00  E= 2.668468D-01

 Vector  154  Occ=0.000000D+00  E= 2.730151D-01

 Vector  155  Occ=0.000000D+00  E= 2.756183D-01

 Vector  156  Occ=0.000000D+00  E= 2.775791D-01

 Vector  157  Occ=0.000000D+00  E= 2.840219D-01

 Vector  158  Occ=0.000000D+00  E= 2.907904D-01

 Vector  159  Occ=0.000000D+00  E= 2.935451D-01

 Vector  160  Occ=0.000000D+00  E= 3.009466D-01

 Vector  161  Occ=0.000000D+00  E= 3.021766D-01

 Vector  162  Occ=0.000000D+00  E= 3.108366D-01

 Vector  163  Occ=0.000000D+00  E= 3.177173D-01

 Vector  164  Occ=0.000000D+00  E= 3.206482D-01

 Vector  165  Occ=0.000000D+00  E= 3.222130D-01

 Vector  166  Occ=0.000000D+00  E= 3.281471D-01

 Vector  167  Occ=0.000000D+00  E= 3.319001D-01

 Vector  168  Occ=0.000000D+00  E= 3.352315D-01

 Vector  169  Occ=0.000000D+00  E= 3.363290D-01

 Vector  170  Occ=0.000000D+00  E= 3.397615D-01

 Vector  171  Occ=0.000000D+00  E= 3.438186D-01

 Vector  172  Occ=0.000000D+00  E= 3.494362D-01

 Vector  173  Occ=0.000000D+00  E= 3.529656D-01

 Vector  174  Occ=0.000000D+00  E= 3.547060D-01

 Vector  175  Occ=0.000000D+00  E= 3.595295D-01

 Vector  176  Occ=0.000000D+00  E= 3.604154D-01

 Vector  177  Occ=0.000000D+00  E= 3.657234D-01

 Vector  178  Occ=0.000000D+00  E= 3.683730D-01

 Vector  179  Occ=0.000000D+00  E= 3.706666D-01

 Vector  180  Occ=0.000000D+00  E= 3.716646D-01

 Vector  181  Occ=0.000000D+00  E= 3.741699D-01

 Vector  182  Occ=0.000000D+00  E= 3.772011D-01

 Vector  183  Occ=0.000000D+00  E= 3.819589D-01

 Vector  184  Occ=0.000000D+00  E= 3.855386D-01

 Vector  185  Occ=0.000000D+00  E= 3.885698D-01

 Vector  186  Occ=0.000000D+00  E= 3.911793D-01

 Vector  187  Occ=0.000000D+00  E= 3.917170D-01

 Vector  188  Occ=0.000000D+00  E= 3.946453D-01

 Vector  189  Occ=0.000000D+00  E= 3.969637D-01

 Vector  190  Occ=0.000000D+00  E= 3.998148D-01

 Vector  191  Occ=0.000000D+00  E= 4.043525D-01

 Vector  192  Occ=0.000000D+00  E= 4.071513D-01

 Vector  193  Occ=0.000000D+00  E= 4.100865D-01

 Vector  194  Occ=0.000000D+00  E= 4.123704D-01

 Vector  195  Occ=0.000000D+00  E= 4.145380D-01

 Vector  196  Occ=0.000000D+00  E= 4.170102D-01

 Vector  197  Occ=0.000000D+00  E= 4.207378D-01

 Vector  198  Occ=0.000000D+00  E= 4.233691D-01

 Vector  199  Occ=0.000000D+00  E= 4.284047D-01

 Vector  200  Occ=0.000000D+00  E= 4.296473D-01

 Vector  201  Occ=0.000000D+00  E= 4.332843D-01

 Vector  202  Occ=0.000000D+00  E= 4.342160D-01

 Vector  203  Occ=0.000000D+00  E= 4.410307D-01

 Vector  204  Occ=0.000000D+00  E= 4.441388D-01

 Vector  205  Occ=0.000000D+00  E= 4.449698D-01

 Vector  206  Occ=0.000000D+00  E= 4.483139D-01

 Vector  207  Occ=0.000000D+00  E= 4.522045D-01

 Vector  208  Occ=0.000000D+00  E= 4.542649D-01

 Vector  209  Occ=0.000000D+00  E= 4.586877D-01

 Vector  210  Occ=0.000000D+00  E= 4.633884D-01

 Vector  211  Occ=0.000000D+00  E= 4.664085D-01

 Vector  212  Occ=0.000000D+00  E= 4.697791D-01

 Vector  213  Occ=0.000000D+00  E= 4.739572D-01

 Vector  214  Occ=0.000000D+00  E= 4.765918D-01

 Vector  215  Occ=0.000000D+00  E= 4.812118D-01

 Vector  216  Occ=0.000000D+00  E= 4.825296D-01

 Vector  217  Occ=0.000000D+00  E= 4.834380D-01

 Vector  218  Occ=0.000000D+00  E= 4.893057D-01

 Vector  219  Occ=0.000000D+00  E= 4.915910D-01

 Vector  220  Occ=0.000000D+00  E= 4.933886D-01

 Vector  221  Occ=0.000000D+00  E= 4.954995D-01

 Vector  222  Occ=0.000000D+00  E= 5.030323D-01

       Multipole analysis of the density wrt the origin
       ------------------------------------------------

     L   x y z        total         open         nuclear
     -   - - -        -----         ----         -------
     0   0 0 0      0.000000      0.000000    168.000000

     1   1 0 0     -1.273621      0.000000      0.000000
     1   0 1 0      0.404858      0.000000      0.000000
     1   0 0 1      0.456989      0.000000      0.000000

     2   2 0 0   -108.800944      0.000000   2001.536940
     2   1 1 0     -2.740940      0.000000    -21.444042
     2   1 0 1      3.803415      0.000000     32.783674
     2   0 2 0    -66.500590      0.000000   2769.959604
     2   0 1 1     -0.586050      0.000000      1.863915

 Total times  cpu:    22974.4s     wall:    23048.1s
