============================== echo of input deck ==============================
start GLN_GLN_0
geometry
H          3.42600        7.52300        4.48800
C          3.13200        6.91800        3.63100
H          2.13300        6.51700        3.79400
H          3.84200        6.10400        3.50000
C          3.12400        7.78500        2.39500
O          2.08600        7.94900        1.76600
N          4.29500        8.30000        2.02800
H          5.09600        8.08400        2.61500
C          4.52200        9.27900        0.95000
H          3.98500       10.19000        1.21900
C          6.02500        9.62500        0.90000
H          6.16000       10.42200        0.16600
H          6.33500       10.02700        1.86600
C          6.95800        8.45900        0.50700
H          6.60200        7.99900       -0.41400
H          7.94900        8.86500        0.30200
C          7.12000        7.38900        1.58900
O          6.98700        7.63000        2.77900
N          7.35600        6.15100        1.23200
H          7.49400        5.48400        1.96700
H          7.31000        5.88600        0.25000
C          4.01000        8.88500       -0.45200
O          3.88900        9.75100       -1.31300
N          3.69200        7.60900       -0.69200
H          3.81600        6.95400        0.06300
C          2.99000        7.14500       -1.89800
H          2.37800        7.98100       -2.24300
C          3.99200        6.85600       -3.04300
H          3.44600        6.92500       -3.98500
H          4.72900        7.66100       -3.05600
C          4.75800        5.51900       -3.06300
H          4.11500        4.74700       -3.48700
H          5.61500        5.61800       -3.73000
C          5.25400        5.04800       -1.70300
O          6.33000        5.39200       -1.24300
N          4.48500        4.24500       -1.00200
H          4.85000        3.88400       -0.14100
H          3.58300        3.98200       -1.38100
C          1.97800        6.02700       -1.56800
O          1.89200        5.00000       -2.23400
N          1.25100        6.15600       -0.46500
H          0.59100        5.43300       -0.23400
H          1.35800        6.97300        0.12500
end

basis
 * library aug-cc-pvdz
end

echo

scf
 direct
end

task scf energy
================================================================================

 Output coordinates in angstroms (scale by  1.889725989 to convert to a.u.)

  No.       Tag          Charge          X              Y              Z
 ---- ---------------- ---------- -------------- -------------- --------------
    1 H                    1.0000    -2.57646407    -3.11305264    -2.24792099
    2 C                    6.0000    -2.31609767    -2.05661935    -2.30331085
    3 H                    1.0000    -3.10213896    -1.51490810    -2.82681730
    4 H                    1.0000    -1.37151787    -1.94224690    -2.83108443
    5 C                    6.0000    -2.18197758    -1.50788486    -0.90318540
    6 O                    8.0000    -2.91473628    -0.60226316    -0.52517084
    7 N                    7.0000    -1.21335909    -2.03047530    -0.15496587
    8 H                    1.0000    -0.65321366    -2.76604913    -0.57685952
    9 C                    6.0000    -0.97054785    -1.76471926     1.27418437
   10 H                    1.0000    -1.84789160    -2.11018498     1.82334044
   11 C                    6.0000     0.23144676    -2.61234634     1.74104867
   12 H                    1.0000     0.33465006    -2.47977679     2.81992049
   13 H                    1.0000     0.01633585    -3.66842965     1.56994831
   14 C                    6.0000     1.58490582    -2.25313474     1.09019568
   15 H                    1.0000     1.76412600    -1.18275923     1.18375516
   16 H                    1.0000     2.37726950    -2.76157669     1.64027620
   17 C                    6.0000     1.70965641    -2.67084663    -0.37671334
   18 O                    8.0000     1.08599254    -3.60831348    -0.85007289
   19 N                    7.0000     2.47050248    -1.96747095    -1.17806527
   20 H                    1.0000     2.55877467    -2.29140232    -2.12222336
   21 H                    1.0000     2.87292615    -1.08868813    -0.85797005
   22 C                    6.0000    -0.77780126    -0.28587239     1.67273762
   23 O                    8.0000    -0.87524537     0.03621032     2.85285853
   24 N                    7.0000    -0.52619639     0.61602944     0.71871032
   25 H                    1.0000    -0.46136506     0.27853924    -0.22803319
   26 C                    6.0000    -0.54402187     2.07099870     0.93150764
   27 H                    1.0000    -1.24126477     2.25723423     1.75104022
   28 C                    6.0000     0.83410784     2.57292591     1.42887832
   29 H                    1.0000     0.67282462     3.51669977     1.95186936
   30 H                    1.0000     1.19941449     1.86652454     2.17648193
   31 C                    6.0000     1.96873005     2.80875856     0.41313210
   32 H                    1.0000     1.82955823     3.78349234    -0.05562612
   33 H                    1.0000     2.91607292     2.84940434     0.95167495
   34 C                    6.0000     2.07659868     1.75336991    -0.67864450
   35 O                    8.0000     2.72676560     0.73082370    -0.53938133
   36 N                    7.0000     1.43721978     1.95689950    -1.80883977
   37 H                    1.0000     1.57149513     1.29181710    -2.54674392
   38 H                    1.0000     0.88104553     2.79784919    -1.90827726
   39 C                    6.0000    -1.15270308     2.81176936    -0.27834112
   40 O                    8.0000    -0.63395584     3.81064715    -0.76703884
   41 N                    7.0000    -2.22185995     2.27861923    -0.85664338
   42 H                    1.0000    -2.62658302     2.74713576    -1.64934856
   43 H                    1.0000    -2.62254470     1.41993526    -0.49726674

         Total SCF energy =  -1113.488218778018

 Vector  145  Occ=0.000000D+00  E= 2.300971D-01

 Vector  146  Occ=0.000000D+00  E= 2.363065D-01

 Vector  147  Occ=0.000000D+00  E= 2.388810D-01

 Vector  148  Occ=0.000000D+00  E= 2.420603D-01

 Vector  149  Occ=0.000000D+00  E= 2.446555D-01

 Vector  150  Occ=0.000000D+00  E= 2.458640D-01

 Vector  151  Occ=0.000000D+00  E= 2.474233D-01

 Vector  152  Occ=0.000000D+00  E= 2.542782D-01

 Vector  153  Occ=0.000000D+00  E= 2.566282D-01

 Vector  154  Occ=0.000000D+00  E= 2.598764D-01

 Vector  155  Occ=0.000000D+00  E= 2.615976D-01

 Vector  156  Occ=0.000000D+00  E= 2.723588D-01

 Vector  157  Occ=0.000000D+00  E= 2.731969D-01

 Vector  158  Occ=0.000000D+00  E= 2.782390D-01

 Vector  159  Occ=0.000000D+00  E= 2.831616D-01

 Vector  160  Occ=0.000000D+00  E= 2.926818D-01

 Vector  161  Occ=0.000000D+00  E= 2.941883D-01

 Vector  162  Occ=0.000000D+00  E= 3.012082D-01

 Vector  163  Occ=0.000000D+00  E= 3.027989D-01

 Vector  164  Occ=0.000000D+00  E= 3.071362D-01

 Vector  165  Occ=0.000000D+00  E= 3.106317D-01

 Vector  166  Occ=0.000000D+00  E= 3.109244D-01

 Vector  167  Occ=0.000000D+00  E= 3.181734D-01

 Vector  168  Occ=0.000000D+00  E= 3.260170D-01

 Vector  169  Occ=0.000000D+00  E= 3.264602D-01

 Vector  170  Occ=0.000000D+00  E= 3.296877D-01

 Vector  171  Occ=0.000000D+00  E= 3.345349D-01

 Vector  172  Occ=0.000000D+00  E= 3.398842D-01

 Vector  173  Occ=0.000000D+00  E= 3.416839D-01

 Vector  174  Occ=0.000000D+00  E= 3.469879D-01

 Vector  175  Occ=0.000000D+00  E= 3.479529D-01

 Vector  176  Occ=0.000000D+00  E= 3.485146D-01

 Vector  177  Occ=0.000000D+00  E= 3.554776D-01

 Vector  178  Occ=0.000000D+00  E= 3.573197D-01

 Vector  179  Occ=0.000000D+00  E= 3.629260D-01

 Vector  180  Occ=0.000000D+00  E= 3.639823D-01

 Vector  181  Occ=0.000000D+00  E= 3.656549D-01

 Vector  182  Occ=0.000000D+00  E= 3.677603D-01

 Vector  183  Occ=0.000000D+00  E= 3.735370D-01

 Vector  184  Occ=0.000000D+00  E= 3.767846D-01

 Vector  185  Occ=0.000000D+00  E= 3.773108D-01

 Vector  186  Occ=0.000000D+00  E= 3.786113D-01

 Vector  187  Occ=0.000000D+00  E= 3.824099D-01

 Vector  188  Occ=0.000000D+00  E= 3.852216D-01

 Vector  189  Occ=0.000000D+00  E= 3.903152D-01

 Vector  190  Occ=0.000000D+00  E= 3.932740D-01

 Vector  191  Occ=0.000000D+00  E= 3.956026D-01

 Vector  192  Occ=0.000000D+00  E= 3.980319D-01

 Vector  193  Occ=0.000000D+00  E= 4.009680D-01

 Vector  194  Occ=0.000000D+00  E= 4.049774D-01

 Vector  195  Occ=0.000000D+00  E= 4.093323D-01

 Vector  196  Occ=0.000000D+00  E= 4.103318D-01

 Vector  197  Occ=0.000000D+00  E= 4.126465D-01

 Vector  198  Occ=0.000000D+00  E= 4.165612D-01

 Vector  199  Occ=0.000000D+00  E= 4.187146D-01

 Vector  200  Occ=0.000000D+00  E= 4.209749D-01

 Vector  201  Occ=0.000000D+00  E= 4.232737D-01

 Vector  202  Occ=0.000000D+00  E= 4.268296D-01

 Vector  203  Occ=0.000000D+00  E= 4.329490D-01

 Vector  204  Occ=0.000000D+00  E= 4.364683D-01

 Vector  205  Occ=0.000000D+00  E= 4.390600D-01

 Vector  206  Occ=0.000000D+00  E= 4.431211D-01

 Vector  207  Occ=0.000000D+00  E= 4.454794D-01

 Vector  208  Occ=0.000000D+00  E= 4.502941D-01

 Vector  209  Occ=0.000000D+00  E= 4.507374D-01

 Vector  210  Occ=0.000000D+00  E= 4.529699D-01

 Vector  211  Occ=0.000000D+00  E= 4.547789D-01

 Vector  212  Occ=0.000000D+00  E= 4.576195D-01

 Vector  213  Occ=0.000000D+00  E= 4.627513D-01

 Vector  214  Occ=0.000000D+00  E= 4.671105D-01

 Vector  215  Occ=0.000000D+00  E= 4.712680D-01

 Vector  216  Occ=0.000000D+00  E= 4.735903D-01

 Vector  217  Occ=0.000000D+00  E= 4.776810D-01

 Vector  218  Occ=0.000000D+00  E= 4.834831D-01

 Vector  219  Occ=0.000000D+00  E= 4.884061D-01

 Vector  220  Occ=0.000000D+00  E= 4.921461D-01

 Vector  221  Occ=0.000000D+00  E= 4.952060D-01

 Vector  222  Occ=0.000000D+00  E= 4.962260D-01

 Vector  223  Occ=0.000000D+00  E= 4.990291D-01

 Vector  224  Occ=0.000000D+00  E= 5.083648D-01

       Multipole analysis of the density wrt the origin
       ------------------------------------------------

     L   x y z        total         open         nuclear
     -   - - -        -----         ----         -------
     0   0 0 0      0.000000      0.000000    168.000000

     1   1 0 0      0.342044      0.000000      0.000000
     1   0 1 0      0.035708      0.000000      0.000000
     1   0 0 1     -1.398675      0.000000      0.000000

     2   2 0 0   -100.552137      0.000000   1765.548755
     2   1 1 0      3.312303      0.000000     23.038699
     2   1 0 1      5.092624      0.000000     33.610670
     2   0 2 0   -105.975285      0.000000   2948.974691
     2   0 1 1     -1.868295      0.000000      9.066051

 Total times  cpu:    23068.6s     wall:    23143.8s
