============================== echo of input deck ==============================
start GLN_GLN_4
geometry
H          4.37800        7.23300        7.30800
C          5.19600        6.58800        6.99000
H          5.15300        5.64300        7.52900
H          6.14800        7.07800        7.19100
C          5.08100        6.32300        5.50900
O          5.98800        6.64500        4.75300
N          3.93900        5.77900        5.09000
H          3.21700        5.63800        5.77900
C          3.62000        5.43900        3.69100
H          4.41800        4.79300        3.32100
C          2.30900        4.62000        3.63700
H          1.97800        4.55600        2.59900
H          2.53700        3.60100        3.95500
C          1.12700        5.11500        4.49600
H          0.22300        4.59400        4.18300
H          1.31200        4.84500        5.53600
C          0.88500        6.62000        4.43900
O          1.42700        7.37200        5.23300
N          0.09900        7.10200        3.50500
H         -0.06200        8.10900        3.50300
H         -0.32400        6.51000        2.81700
C          3.58600        6.63300        2.70800
O          3.47300        6.42100        1.50400
N          3.70400        7.86700        3.20100
H          3.71300        7.95400        4.20600
C          3.81000        9.10100        2.41000
H          4.03600        8.82200        1.38000
C          2.44600        9.81500        2.39300
H          2.46100       10.60200        1.63800
H          1.69500        9.08500        2.08800
C          2.05300       10.44000        3.74700
H          2.34700        9.78200        4.56300
H          2.58900       11.38100        3.87000
C          0.55300       10.68900        3.88200
O         -0.28900        9.92400        3.43800
N          0.14600       11.76100        4.52400
H          0.80900       12.41200        4.90200
H         -0.84800       11.88100        4.59500
C          4.97900       10.00000        2.86400
O          4.99500       11.19800        2.61000
N          5.96600        9.46000        3.57100
H          6.72700       10.05200        3.85900
H          5.96800        8.46800        3.77600
end

basis
 * library aug-cc-pvdz
end

echo

scf
 direct
end

task scf energy
================================================================================

 Output coordinates in angstroms (scale by  1.889725989 to convert to a.u.)

  No.       Tag          Charge          X              Y              Z
 ---- ---------------- ---------- -------------- -------------- --------------
    1 H                    1.0000     0.45610046    -2.01624189     3.19397460
    2 C                    6.0000     0.89219934    -2.90610957     2.74206059
    3 H                    1.0000     0.32936069    -3.78794104     3.04369104
    4 H                    1.0000     1.92831458    -3.00916728     3.06244991
    5 C                    6.0000     0.85134551    -2.77847946     1.23911265
    6 O                    8.0000     1.88800792    -2.81099759     0.58938761
    7 N                    7.0000    -0.34789026    -2.58269089     0.69215617
    8 H                    1.0000    -1.12828140    -2.47688026     1.32118699
    9 C                    6.0000    -0.61203758    -2.43247363    -0.75083481
   10 H                    1.0000    -0.18717255    -3.30287494    -1.25373765
   11 C                    6.0000    -2.13683533    -2.45626420    -1.00933783
   12 H                    1.0000    -2.32332754    -2.13893842    -2.03677445
   13 H                    1.0000    -2.47296007    -3.49224823    -0.93704510
   14 C                    6.0000    -3.02903300    -1.61793816    -0.07060316
   15 H                    1.0000    -4.02445532    -1.54282935    -0.50662961
   16 H                    1.0000    -3.13091576    -2.14414963     0.87884214
   17 C                    6.0000    -2.50268037    -0.21702134     0.22473219
   18 O                    8.0000    -1.76957832    -0.01163949     1.17871526
   19 N                    7.0000    -2.83189118     0.76753612    -0.57822662
   20 H                    1.0000    -2.48347159     1.69727095    -0.34548010
   21 H                    1.0000    -3.39787957     0.61648228    -1.39037000
   22 C                    6.0000     0.06076103    -1.21426007    -1.42639291
   23 O                    8.0000     0.01232051    -1.09784593    -2.64763419
   24 N                    7.0000     0.69814086    -0.33084715    -0.65629059
   25 H                    1.0000     0.62114501    -0.46116340     0.34108813
   26 C                    6.0000     1.48727428     0.81300005    -1.13436487
   27 H                    1.0000     1.67793152     0.66887293    -2.19864594
   28 C                    6.0000     0.65415407     2.10055163    -0.99760731
   29 H                    1.0000     1.14352704     2.90601427    -1.54657274
   30 H                    1.0000    -0.31100159     1.92137005    -1.47331152
   31 C                    6.0000     0.44551566     2.55566210     0.46106829
   32 H                    1.0000     0.27843374     1.69226522     1.10285132
   33 H                    1.0000     1.34966540     3.05631500     0.80714043
   34 C                    6.0000    -0.74969010     3.48918269     0.63498919
   35 O                    8.0000    -1.79302778     3.35356697     0.01500543
   36 N                    7.0000    -0.66411308     4.46915791     1.50638012
   37 H                    1.0000     0.17738305     4.61130826     2.03357226
   38 H                    1.0000    -1.47559471     5.05349513     1.59312441
   39 C                    6.0000     2.87734875     0.89599723    -0.46977294
   40 O                    8.0000     3.50331662     1.94811429    -0.43527763
   41 N                    7.0000     3.38117113    -0.19301931     0.10103700
   42 H                    1.0000     4.29031573    -0.13179138     0.52792836
   43 H                    1.0000     2.87671531    -1.07079480     0.06745856

         Total SCF energy =  -1113.485344866554

 Vector  145  Occ=0.000000D+00  E= 2.323809D-01

 Vector  146  Occ=0.000000D+00  E= 2.344382D-01

 Vector  147  Occ=0.000000D+00  E= 2.417097D-01

 Vector  148  Occ=0.000000D+00  E= 2.464125D-01

 Vector  149  Occ=0.000000D+00  E= 2.475684D-01

 Vector  150  Occ=0.000000D+00  E= 2.512179D-01

 Vector  151  Occ=0.000000D+00  E= 2.552043D-01

 Vector  152  Occ=0.000000D+00  E= 2.578324D-01

 Vector  153  Occ=0.000000D+00  E= 2.639543D-01

 Vector  154  Occ=0.000000D+00  E= 2.677642D-01

 Vector  155  Occ=0.000000D+00  E= 2.690714D-01

 Vector  156  Occ=0.000000D+00  E= 2.713186D-01

 Vector  157  Occ=0.000000D+00  E= 2.759528D-01

 Vector  158  Occ=0.000000D+00  E= 2.889633D-01

 Vector  159  Occ=0.000000D+00  E= 2.905971D-01

 Vector  160  Occ=0.000000D+00  E= 2.971364D-01

 Vector  161  Occ=0.000000D+00  E= 3.006089D-01

 Vector  162  Occ=0.000000D+00  E= 3.036912D-01

 Vector  163  Occ=0.000000D+00  E= 3.079387D-01

 Vector  164  Occ=0.000000D+00  E= 3.091600D-01

 Vector  165  Occ=0.000000D+00  E= 3.155647D-01

 Vector  166  Occ=0.000000D+00  E= 3.168317D-01

 Vector  167  Occ=0.000000D+00  E= 3.225290D-01

 Vector  168  Occ=0.000000D+00  E= 3.273354D-01

 Vector  169  Occ=0.000000D+00  E= 3.285197D-01

 Vector  170  Occ=0.000000D+00  E= 3.336219D-01

 Vector  171  Occ=0.000000D+00  E= 3.403589D-01

 Vector  172  Occ=0.000000D+00  E= 3.427880D-01

 Vector  173  Occ=0.000000D+00  E= 3.445632D-01

 Vector  174  Occ=0.000000D+00  E= 3.503145D-01

 Vector  175  Occ=0.000000D+00  E= 3.524938D-01

 Vector  176  Occ=0.000000D+00  E= 3.561054D-01

 Vector  177  Occ=0.000000D+00  E= 3.615640D-01

 Vector  178  Occ=0.000000D+00  E= 3.637716D-01

 Vector  179  Occ=0.000000D+00  E= 3.641464D-01

 Vector  180  Occ=0.000000D+00  E= 3.666978D-01

 Vector  181  Occ=0.000000D+00  E= 3.710116D-01

 Vector  182  Occ=0.000000D+00  E= 3.720167D-01

 Vector  183  Occ=0.000000D+00  E= 3.745027D-01

 Vector  184  Occ=0.000000D+00  E= 3.770338D-01

 Vector  185  Occ=0.000000D+00  E= 3.789303D-01

 Vector  186  Occ=0.000000D+00  E= 3.812526D-01

 Vector  187  Occ=0.000000D+00  E= 3.892108D-01

 Vector  188  Occ=0.000000D+00  E= 3.911277D-01

 Vector  189  Occ=0.000000D+00  E= 3.923808D-01

 Vector  190  Occ=0.000000D+00  E= 3.961542D-01

 Vector  191  Occ=0.000000D+00  E= 3.986870D-01

 Vector  192  Occ=0.000000D+00  E= 4.018631D-01

 Vector  193  Occ=0.000000D+00  E= 4.026739D-01

 Vector  194  Occ=0.000000D+00  E= 4.054720D-01

 Vector  195  Occ=0.000000D+00  E= 4.100333D-01

 Vector  196  Occ=0.000000D+00  E= 4.141705D-01

 Vector  197  Occ=0.000000D+00  E= 4.185355D-01

 Vector  198  Occ=0.000000D+00  E= 4.208988D-01

 Vector  199  Occ=0.000000D+00  E= 4.216316D-01

 Vector  200  Occ=0.000000D+00  E= 4.283259D-01

 Vector  201  Occ=0.000000D+00  E= 4.304819D-01

 Vector  202  Occ=0.000000D+00  E= 4.320501D-01

 Vector  203  Occ=0.000000D+00  E= 4.321993D-01

 Vector  204  Occ=0.000000D+00  E= 4.380094D-01

 Vector  205  Occ=0.000000D+00  E= 4.416083D-01

 Vector  206  Occ=0.000000D+00  E= 4.444606D-01

 Vector  207  Occ=0.000000D+00  E= 4.458221D-01

 Vector  208  Occ=0.000000D+00  E= 4.507220D-01

 Vector  209  Occ=0.000000D+00  E= 4.550550D-01

 Vector  210  Occ=0.000000D+00  E= 4.564902D-01

 Vector  211  Occ=0.000000D+00  E= 4.593414D-01

 Vector  212  Occ=0.000000D+00  E= 4.604167D-01

 Vector  213  Occ=0.000000D+00  E= 4.679438D-01

 Vector  214  Occ=0.000000D+00  E= 4.700056D-01

 Vector  215  Occ=0.000000D+00  E= 4.744189D-01

 Vector  216  Occ=0.000000D+00  E= 4.756574D-01

 Vector  217  Occ=0.000000D+00  E= 4.814536D-01

 Vector  218  Occ=0.000000D+00  E= 4.829011D-01

 Vector  219  Occ=0.000000D+00  E= 4.836410D-01

 Vector  220  Occ=0.000000D+00  E= 4.902543D-01

 Vector  221  Occ=0.000000D+00  E= 4.950710D-01

 Vector  222  Occ=0.000000D+00  E= 4.967318D-01

 Vector  223  Occ=0.000000D+00  E= 4.986300D-01

 Vector  224  Occ=0.000000D+00  E= 5.045850D-01

       Multipole analysis of the density wrt the origin
       ------------------------------------------------

     L   x y z        total         open         nuclear
     -   - - -        -----         ----         -------
     0   0 0 0     -0.000000      0.000000    168.000000

     1   1 0 0     -1.788539      0.000000      0.000000
     1   0 1 0     -0.636945      0.000000      0.000000
     1   0 0 1      1.945580      0.000000     -0.000000

     2   2 0 0   -100.602315      0.000000   2208.516162
     2   1 1 0      4.060519      0.000000     24.071717
     2   1 0 1      7.568818      0.000000     28.303917
     2   0 2 0    -87.325399      0.000000   3108.096156
     2   0 1 1      1.807891      0.000000    -15.315575

 Total times  cpu:    22071.4s     wall:    22144.7s
