============================== echo of input deck ==============================
start GLN_CYS_2
geometry
H          5.87200        4.21800       -0.38200
C          5.76700        5.13100        0.20100
H          6.03800        4.93700        1.23700
H          4.73800        5.48400        0.15100
C          6.68200        6.19000       -0.36400
O          6.22600        7.25100       -0.77800
N          7.98200        5.90500       -0.39300
H          8.28200        4.99400       -0.06400
C          8.99500        6.80600       -0.95200
H          8.93400        7.73800       -0.38900
C         10.41100        6.23300       -0.71900
H         11.13300        7.02300       -0.93200
H         10.51100        5.98300        0.33800
C         10.81100        4.99800       -1.55200
H         10.92800        5.28600       -2.59700
H         11.78300        4.64400       -1.20800
C          9.82100        3.84100       -1.44400
O          9.51800        3.35000       -0.37000
N          9.22300        3.40900       -2.52900
H          8.55900        2.66700       -2.41300
H          9.28300        3.95800       -3.37300
C          8.70700        7.13400       -2.43100
O          8.64300        6.24500       -3.27900
N          8.53300        8.42500       -2.73400
H          8.58800        9.09200       -1.98200
C          8.11100        8.93900       -4.04800
H          7.94600       10.01000       -3.92500
C          9.24500        8.79500       -5.07900
H          9.41200        7.73900       -5.29900
H          8.94600        9.29000       -6.00500
S         10.78200        9.55300       -4.47000
H         11.10400        8.57900       -3.61400
C          6.75500        8.39700       -4.56400
O          6.45300        8.50500       -5.74700
N          5.90400        7.83200       -3.71500
H          6.13800        7.73200       -2.73600
H          5.03300        7.48400       -4.07800
end

basis
 * library aug-cc-pvdz
end

echo

scf
 direct
end

task scf energy
================================================================================

 Output coordinates in angstroms (scale by  1.889725989 to convert to a.u.)

  No.       Tag          Charge          X              Y              Z
 ---- ---------------- ---------- -------------- -------------- --------------
    1 H                    1.0000    -2.53384156    -3.33975342    -0.61936540
    2 C                    6.0000    -2.80511447    -3.05870008     0.39646088
    3 H                    1.0000    -2.63717678    -3.89986803     1.06624174
    4 H                    1.0000    -3.85361351    -2.76639981     0.43052443
    5 C                    6.0000    -1.95159881    -1.89375851     0.83504173
    6 O                    8.0000    -2.46930736    -0.83196929     1.16615277
    7 N                    7.0000    -0.63379203    -2.08201706     0.83187580
    8 H                    1.0000    -0.27654736    -2.97603797     0.51365443
    9 C                    6.0000     0.33301379    -1.03761225     1.18536711
   10 H                    1.0000     0.10543345    -0.72895181     2.20627353
   11 C                    6.0000     1.76622987    -1.61497308     1.20020417
   12 H                    1.0000     2.41755566    -0.88641432     1.68572436
   13 H                    1.0000     1.76902727    -2.51201144     1.82073890
   14 C                    6.0000     2.39300751    -1.96469335    -0.16506485
   15 H                    1.0000     2.59887827    -1.04723165    -0.71691562
   16 H                    1.0000     3.35107714    -2.45605709     0.00552313
   17 C                    6.0000     1.52942229    -2.89407174    -1.01411689
   18 O                    8.0000     1.15871775    -3.98139787    -0.60586939
   19 N                    7.0000     1.11272716    -2.48288837    -2.18831722
   20 H                    1.0000     0.52472413    -3.11048120    -2.70338583
   21 H                    1.0000     1.21040914    -1.50828679    -2.42903905
   22 C                    6.0000     0.18530513     0.20114819     0.27893249
   23 O                    8.0000     0.31801687     0.11612800    -0.94118233
   24 N                    7.0000    -0.09206812     1.35855689     0.88904327
   25 H                    1.0000    -0.19824059     1.34431688     1.89001412
   26 C                    6.0000    -0.41159401     2.62317591     0.20529042
   27 H                    1.0000    -0.70572426     3.33091963     0.98116491
   28 C                    6.0000     0.84374978     3.21423588    -0.46135272
   29 H                    1.0000     1.14952376     2.58296975    -1.29767224
   30 H                    1.0000     0.60249213     4.20349621    -0.85513027
   31 S                   16.0000     2.20729254     3.36667082     0.73251860
   32 H                    1.0000     2.53170220     2.07087550     0.76024691
   33 C                    6.0000    -1.63087883     2.56794720    -0.74815087
   34 O                    8.0000    -1.80289585     3.44463788    -1.58730557
   35 N                    7.0000    -2.50824537     1.57652537    -0.64073718
   36 H                    1.0000    -2.38044966     0.84313452     0.04410084
   37 H                    1.0000    -3.28776618     1.56243124    -1.27608171

         Total SCF energy =  -1304.164120747097

 Vector  123  Occ=0.000000D+00  E= 1.947128D-01

 Vector  124  Occ=0.000000D+00  E= 1.961559D-01

 Vector  125  Occ=0.000000D+00  E= 1.982103D-01

 Vector  126  Occ=0.000000D+00  E= 2.034595D-01

 Vector  127  Occ=0.000000D+00  E= 2.039311D-01

 Vector  128  Occ=0.000000D+00  E= 2.069508D-01

 Vector  129  Occ=0.000000D+00  E= 2.125824D-01

 Vector  130  Occ=0.000000D+00  E= 2.156892D-01

 Vector  131  Occ=0.000000D+00  E= 2.189505D-01

 Vector  132  Occ=0.000000D+00  E= 2.244973D-01

 Vector  133  Occ=0.000000D+00  E= 2.251985D-01

 Vector  134  Occ=0.000000D+00  E= 2.279662D-01

 Vector  135  Occ=0.000000D+00  E= 2.352658D-01

 Vector  136  Occ=0.000000D+00  E= 2.366886D-01

 Vector  137  Occ=0.000000D+00  E= 2.474045D-01

 Vector  138  Occ=0.000000D+00  E= 2.480119D-01

 Vector  139  Occ=0.000000D+00  E= 2.491321D-01

 Vector  140  Occ=0.000000D+00  E= 2.578706D-01

 Vector  141  Occ=0.000000D+00  E= 2.643224D-01

 Vector  142  Occ=0.000000D+00  E= 2.693883D-01

 Vector  143  Occ=0.000000D+00  E= 2.718097D-01

 Vector  144  Occ=0.000000D+00  E= 2.726817D-01

 Vector  145  Occ=0.000000D+00  E= 2.835612D-01

 Vector  146  Occ=0.000000D+00  E= 2.871692D-01

 Vector  147  Occ=0.000000D+00  E= 2.929791D-01

 Vector  148  Occ=0.000000D+00  E= 2.978555D-01

 Vector  149  Occ=0.000000D+00  E= 2.987178D-01

 Vector  150  Occ=0.000000D+00  E= 3.021217D-01

 Vector  151  Occ=0.000000D+00  E= 3.058381D-01

 Vector  152  Occ=0.000000D+00  E= 3.103116D-01

 Vector  153  Occ=0.000000D+00  E= 3.154218D-01

 Vector  154  Occ=0.000000D+00  E= 3.240926D-01

 Vector  155  Occ=0.000000D+00  E= 3.258219D-01

 Vector  156  Occ=0.000000D+00  E= 3.296539D-01

 Vector  157  Occ=0.000000D+00  E= 3.319479D-01

 Vector  158  Occ=0.000000D+00  E= 3.361329D-01

 Vector  159  Occ=0.000000D+00  E= 3.395438D-01

 Vector  160  Occ=0.000000D+00  E= 3.405680D-01

 Vector  161  Occ=0.000000D+00  E= 3.456426D-01

 Vector  162  Occ=0.000000D+00  E= 3.500187D-01

 Vector  163  Occ=0.000000D+00  E= 3.523874D-01

 Vector  164  Occ=0.000000D+00  E= 3.577115D-01

 Vector  165  Occ=0.000000D+00  E= 3.595611D-01

 Vector  166  Occ=0.000000D+00  E= 3.633349D-01

 Vector  167  Occ=0.000000D+00  E= 3.680819D-01

 Vector  168  Occ=0.000000D+00  E= 3.733288D-01

 Vector  169  Occ=0.000000D+00  E= 3.762002D-01

 Vector  170  Occ=0.000000D+00  E= 3.780669D-01

 Vector  171  Occ=0.000000D+00  E= 3.827310D-01

 Vector  172  Occ=0.000000D+00  E= 3.859638D-01

 Vector  173  Occ=0.000000D+00  E= 3.873563D-01

 Vector  174  Occ=0.000000D+00  E= 3.906258D-01

 Vector  175  Occ=0.000000D+00  E= 3.927004D-01

 Vector  176  Occ=0.000000D+00  E= 3.960839D-01

 Vector  177  Occ=0.000000D+00  E= 3.987470D-01

 Vector  178  Occ=0.000000D+00  E= 4.018687D-01

 Vector  179  Occ=0.000000D+00  E= 4.051809D-01

 Vector  180  Occ=0.000000D+00  E= 4.067896D-01

 Vector  181  Occ=0.000000D+00  E= 4.161662D-01

 Vector  182  Occ=0.000000D+00  E= 4.180475D-01

 Vector  183  Occ=0.000000D+00  E= 4.231997D-01

 Vector  184  Occ=0.000000D+00  E= 4.272528D-01

 Vector  185  Occ=0.000000D+00  E= 4.294549D-01

 Vector  186  Occ=0.000000D+00  E= 4.314591D-01

 Vector  187  Occ=0.000000D+00  E= 4.359704D-01

 Vector  188  Occ=0.000000D+00  E= 4.447327D-01

 Vector  189  Occ=0.000000D+00  E= 4.472642D-01

 Vector  190  Occ=0.000000D+00  E= 4.503398D-01

 Vector  191  Occ=0.000000D+00  E= 4.589203D-01

 Vector  192  Occ=0.000000D+00  E= 4.605661D-01

 Vector  193  Occ=0.000000D+00  E= 4.621944D-01

 Vector  194  Occ=0.000000D+00  E= 4.646610D-01

 Vector  195  Occ=0.000000D+00  E= 4.745154D-01

 Vector  196  Occ=0.000000D+00  E= 4.757624D-01

 Vector  197  Occ=0.000000D+00  E= 4.803695D-01

 Vector  198  Occ=0.000000D+00  E= 4.833513D-01

 Vector  199  Occ=0.000000D+00  E= 4.860606D-01

 Vector  200  Occ=0.000000D+00  E= 4.907473D-01

 Vector  201  Occ=0.000000D+00  E= 4.946494D-01

 Vector  202  Occ=0.000000D+00  E= 5.045701D-01

       Multipole analysis of the density wrt the origin
       ------------------------------------------------

     L   x y z        total         open         nuclear
     -   - - -        -----         ----         -------
     0   0 0 0     -0.000000      0.000000    154.000000

     1   1 0 0      0.528755      0.000000     -0.000000
     1   0 1 0     -1.372616      0.000000     -0.000000
     1   0 0 1      0.926485      0.000000      0.000000

     2   2 0 0    -90.178969      0.000000   1647.250015
     2   1 1 0      6.348951      0.000000     18.261666
     2   1 0 1      0.613572      0.000000      2.250128
     2   0 2 0   -108.772241      0.000000   3367.757122
     2   0 1 1      6.832467      0.000000     -2.138612

 Total times  cpu:    13696.2s     wall:    13737.8s
