============================== echo of input deck ==============================
start GLN_GLN_2
geometry
H          2.64600        5.51200        3.03500
C          2.49600        6.25300        3.81800
H          2.50100        5.76700        4.79100
H          1.54500        6.76000        3.66300
C          3.61100        7.26900        3.76300
O          3.35900        8.46100        3.62000
N          4.85600        6.80500        3.85900
H          4.99400        5.80000        3.87700
C          6.05300        7.66100        3.87800
H          5.85500        8.45900        4.59500
C          7.26200        6.86500        4.41900
H          7.96900        7.58100        4.84000
H          6.93000        6.22500        5.23900
C          8.03300        6.01000        3.39500
H          8.53500        6.67400        2.69100
H          8.80800        5.45000        3.91800
C          7.17200        5.01900        2.61900
O          6.23500        4.42200        3.12000
N          7.45100        4.81000        1.35200
H          8.21900        5.28300        0.91400
H          6.81800        4.19900        0.86500
C          6.34900        8.36600        2.53700
O          7.30400        9.13100        2.44200
N          5.54500        8.11800        1.49800
H          4.80200        7.44000        1.63400
C          5.53500        8.87600        0.24400
H          6.56300        8.99900       -0.10100
C          4.74100        8.10600       -0.83100
H          3.68400        8.07600       -0.55800
H          4.81700        8.67300       -1.75900
C          5.23900        6.67600       -1.12300
H          4.94200        6.42200       -2.14100
H          6.32800        6.65000       -1.08100
C          4.67000        5.59500       -0.20100
O          4.02900        5.84200        0.80400
N          4.89200        4.33200       -0.49700
H          5.33100        4.07500       -1.36200
H          4.44800        3.66700        0.11500
C          4.93900       10.29100        0.40300
O          5.11100       11.13200       -0.47100
N          4.22300       10.58400        1.48400
H          3.84800       11.51200        1.57100
H          4.05400        9.88200        2.19300
end

basis
 * library aug-cc-pvdz
end

echo

scf
 direct
end

task scf energy
================================================================================

 Output coordinates in angstroms (scale by  1.889725989 to convert to a.u.)

  No.       Tag          Charge          X              Y              Z
 ---- ---------------- ---------- -------------- -------------- --------------
    1 H                    1.0000     0.21053890     1.28692475    -3.23016913
    2 C                    6.0000     1.24161527     0.95024340    -3.32070748
    3 H                    1.0000     1.88347056     1.79205411    -3.57036025
    4 H                    1.0000     1.31023233     0.19012562    -4.09723028
    5 C                    6.0000     1.68881276     0.35520145    -2.00752604
    6 O                    8.0000     2.10109820    -0.79903103    -1.95668215
    7 N                    7.0000     1.59552348     1.13225668    -0.92955605
    8 H                    1.0000     1.15475989     2.04068315    -1.02896332
    9 C                    6.0000     2.03738760     0.72900142     0.41508044
   10 H                    1.0000     3.03463591     0.30168263     0.30110035
   11 C                    6.0000     2.18632104     1.97495610     1.31696391
   12 H                    1.0000     2.90777284     1.73418233     2.09880871
   13 H                    1.0000     2.61246560     2.79138200     0.73038608
   14 C                    6.0000     0.90588083     2.47276219     2.01460562
   15 H                    1.0000     0.59843822     1.73213224     2.75315983
   16 H                    1.0000     1.13509883     3.39078182     2.55539492
   17 C                    6.0000    -0.26118276     2.75377063     1.07408724
   18 O                    8.0000    -0.11528074     3.23093714    -0.03784969
   19 N                    7.0000    -1.47493913     2.45795726     1.48164206
   20 H                    1.0000    -1.62631429     2.06898026     2.39333250
   21 H                    1.0000    -2.20488739     2.59986180     0.80472432
   22 C                    6.0000     1.17718292    -0.37949103     1.05867533
   23 O                    8.0000     1.46945109    -0.81959612     2.16644870
   24 N                    7.0000     0.11849694    -0.83562114     0.38149714
   25 H                    1.0000    -0.09168247    -0.39508031    -0.50843398
   26 C                    6.0000    -0.64849742    -2.03458639     0.72989632
   27 H                    1.0000    -0.87052373    -2.01216428     1.79813766
   28 C                    6.0000    -1.97809264    -2.05527476    -0.05158274
   29 H                    1.0000    -1.77820873    -2.19672675    -1.11587394
   30 H                    1.0000    -2.54063727    -2.92519054     0.28788609
   31 C                    6.0000    -2.87916944    -0.81917419     0.14408021
   32 H                    1.0000    -3.90808389    -1.12388488    -0.04966048
   33 H                    1.0000    -2.82399074    -0.48402322     1.17993259
   34 C                    6.0000    -2.57097087     0.35629922    -0.78634006
   35 O                    8.0000    -1.58246387     0.40765581    -1.49495237
   36 N                    7.0000    -3.40662312     1.37255729    -0.81754690
   37 H                    1.0000    -4.28085911     1.33601491    -0.32625159
   38 H                    1.0000    -3.17978631     2.08973903    -1.48694993
   39 C                    6.0000     0.12486752    -3.34212922     0.45610729
   40 O                    8.0000    -0.26152074    -4.39796320     0.94258412
   41 N                    7.0000     1.19992159    -3.31753247    -0.32537831
   42 H                    1.0000     1.69220286    -4.17827573    -0.48711323
   43 H                    1.0000     1.50349941    -2.45201595    -0.75289167

         Total SCF energy =  -1113.485742519712

 Vector  143  Occ=0.000000D+00  E= 2.247634D-01

 Vector  144  Occ=0.000000D+00  E= 2.266855D-01

 Vector  145  Occ=0.000000D+00  E= 2.323403D-01

 Vector  146  Occ=0.000000D+00  E= 2.345523D-01

 Vector  147  Occ=0.000000D+00  E= 2.367542D-01

 Vector  148  Occ=0.000000D+00  E= 2.379989D-01

 Vector  149  Occ=0.000000D+00  E= 2.462026D-01

 Vector  150  Occ=0.000000D+00  E= 2.503646D-01

 Vector  151  Occ=0.000000D+00  E= 2.524501D-01

 Vector  152  Occ=0.000000D+00  E= 2.589749D-01

 Vector  153  Occ=0.000000D+00  E= 2.591069D-01

 Vector  154  Occ=0.000000D+00  E= 2.656091D-01

 Vector  155  Occ=0.000000D+00  E= 2.724648D-01

 Vector  156  Occ=0.000000D+00  E= 2.774607D-01

 Vector  157  Occ=0.000000D+00  E= 2.821466D-01

 Vector  158  Occ=0.000000D+00  E= 2.850076D-01

 Vector  159  Occ=0.000000D+00  E= 2.876829D-01

 Vector  160  Occ=0.000000D+00  E= 2.897224D-01

 Vector  161  Occ=0.000000D+00  E= 2.972851D-01

 Vector  162  Occ=0.000000D+00  E= 2.975404D-01

 Vector  163  Occ=0.000000D+00  E= 3.037085D-01

 Vector  164  Occ=0.000000D+00  E= 3.089185D-01

 Vector  165  Occ=0.000000D+00  E= 3.114798D-01

 Vector  166  Occ=0.000000D+00  E= 3.157906D-01

 Vector  167  Occ=0.000000D+00  E= 3.253693D-01

 Vector  168  Occ=0.000000D+00  E= 3.277235D-01

 Vector  169  Occ=0.000000D+00  E= 3.308933D-01

 Vector  170  Occ=0.000000D+00  E= 3.377103D-01

 Vector  171  Occ=0.000000D+00  E= 3.435360D-01

 Vector  172  Occ=0.000000D+00  E= 3.447811D-01

 Vector  173  Occ=0.000000D+00  E= 3.479248D-01

 Vector  174  Occ=0.000000D+00  E= 3.494424D-01

 Vector  175  Occ=0.000000D+00  E= 3.504978D-01

 Vector  176  Occ=0.000000D+00  E= 3.549622D-01

 Vector  177  Occ=0.000000D+00  E= 3.580020D-01

 Vector  178  Occ=0.000000D+00  E= 3.598146D-01

 Vector  179  Occ=0.000000D+00  E= 3.653419D-01

 Vector  180  Occ=0.000000D+00  E= 3.679591D-01

 Vector  181  Occ=0.000000D+00  E= 3.700772D-01

 Vector  182  Occ=0.000000D+00  E= 3.727652D-01

 Vector  183  Occ=0.000000D+00  E= 3.740469D-01

 Vector  184  Occ=0.000000D+00  E= 3.771861D-01

 Vector  185  Occ=0.000000D+00  E= 3.813922D-01

 Vector  186  Occ=0.000000D+00  E= 3.887772D-01

 Vector  187  Occ=0.000000D+00  E= 3.898709D-01

 Vector  188  Occ=0.000000D+00  E= 3.972335D-01

 Vector  189  Occ=0.000000D+00  E= 3.978841D-01

 Vector  190  Occ=0.000000D+00  E= 4.004530D-01

 Vector  191  Occ=0.000000D+00  E= 4.061935D-01

 Vector  192  Occ=0.000000D+00  E= 4.069959D-01

 Vector  193  Occ=0.000000D+00  E= 4.118862D-01

 Vector  194  Occ=0.000000D+00  E= 4.128041D-01

 Vector  195  Occ=0.000000D+00  E= 4.148588D-01

 Vector  196  Occ=0.000000D+00  E= 4.180875D-01

 Vector  197  Occ=0.000000D+00  E= 4.190589D-01

 Vector  198  Occ=0.000000D+00  E= 4.225683D-01

 Vector  199  Occ=0.000000D+00  E= 4.274667D-01

 Vector  200  Occ=0.000000D+00  E= 4.300020D-01

 Vector  201  Occ=0.000000D+00  E= 4.319062D-01

 Vector  202  Occ=0.000000D+00  E= 4.350815D-01

 Vector  203  Occ=0.000000D+00  E= 4.407377D-01

 Vector  204  Occ=0.000000D+00  E= 4.428750D-01

 Vector  205  Occ=0.000000D+00  E= 4.444375D-01

 Vector  206  Occ=0.000000D+00  E= 4.481772D-01

 Vector  207  Occ=0.000000D+00  E= 4.512122D-01

 Vector  208  Occ=0.000000D+00  E= 4.547102D-01

 Vector  209  Occ=0.000000D+00  E= 4.559172D-01

 Vector  210  Occ=0.000000D+00  E= 4.587217D-01

 Vector  211  Occ=0.000000D+00  E= 4.628014D-01

 Vector  212  Occ=0.000000D+00  E= 4.669987D-01

 Vector  213  Occ=0.000000D+00  E= 4.690626D-01

 Vector  214  Occ=0.000000D+00  E= 4.718792D-01

 Vector  215  Occ=0.000000D+00  E= 4.759599D-01

 Vector  216  Occ=0.000000D+00  E= 4.787416D-01

 Vector  217  Occ=0.000000D+00  E= 4.852745D-01

 Vector  218  Occ=0.000000D+00  E= 4.895414D-01

 Vector  219  Occ=0.000000D+00  E= 4.917387D-01

 Vector  220  Occ=0.000000D+00  E= 4.955771D-01

 Vector  221  Occ=0.000000D+00  E= 4.982525D-01

 Vector  222  Occ=0.000000D+00  E= 5.024002D-01

       Multipole analysis of the density wrt the origin
       ------------------------------------------------

     L   x y z        total         open         nuclear
     -   - - -        -----         ----         -------
     0   0 0 0      0.000000      0.000000    168.000000

     1   1 0 0     -2.551744      0.000000      0.000000
     1   0 1 0      3.024227      0.000000      0.000000
     1   0 0 1     -0.080713      0.000000      0.000000

     2   2 0 0    -78.012769      0.000000   1836.602847
     2   1 1 0     -1.844015      0.000000     19.394726
     2   1 0 1     -2.751105      0.000000     -9.480432
     2   0 2 0   -116.304654      0.000000   2601.344347
     2   0 1 1     11.150920      0.000000     19.049283

 Total times  cpu:    23410.4s     wall:    23489.5s
